
     Program PWSCF v.7.2 starts on 21Nov2024 at 15:22:46 

     This program is part of the open-source Quantum ESPRESSO suite
     for quantum simulation of materials; please cite
         "P. Giannozzi et al., J. Phys.:Condens. Matter 21 395502 (2009);
         "P. Giannozzi et al., J. Phys.:Condens. Matter 29 465901 (2017);
         "P. Giannozzi et al., J. Chem. Phys. 152 154105 (2020);
          URL http://www.quantum-espresso.org", 
     in publications or presentations arising from this work. More details at
     http://www.quantum-espresso.org/quote

     Parallel version (MPI), running on     6 processors

     MPI processes distributed on     1 nodes
     6798 MiB available memory on the printing compute node when the environment starts

     Waiting for input...
     Reading input from standard input

     Current dimensions of program PWSCF are:
     Max number of different atomic species (ntypx) = 10
     Max number of k-points (npk) =  40000
     Max angular momentum in pseudopotentials (lmaxx) =  4

     IMPORTANT: XC functional enforced from input :
     Exchange-correlation= PBE0
                           (   6   4   8   4   0   0   0)
     EXX-fraction              =        0.25
     Any further DFT definition will be discarded
     Please, verify this is what you really want

     EXX fraction changed:   0.50
     Message from routine setup:
     the system is metallic, specify occupations
     Message from routine setup:
     using ibrav=0 with symmetry is DISCOURAGED, use correct ibrav instead

     R & G space division:  proc/nbgrp/npool/nimage =       6
     Subspace diagonalization in iterative solution of the eigenvalue problem:
     a serial algorithm will be used

     EXX: q-point mesh:     1    1    1
     EXX: grid of k+q points same as grid of k-points

     Parallelization info
     --------------------
     sticks:   dense  smooth     PW     G-vecs:    dense   smooth      PW
     Min        1894    1894    473               151984   151984   18966
     Max        1895    1895    475               151987   151987   18967
     Sum       11369   11369   2845               911913   911913  113801

     Using Slab Decomposition



     bravais-lattice index     =            0
     lattice parameter (alat)  =      18.8973  a.u.
     unit-cell volume          =    6748.3345 (a.u.)^3
     number of atoms/cell      =            4
     number of atomic types    =            2
     number of electrons       =        33.00 (up:  17.00, down:  16.00)
     number of Kohn-Sham states=           17
     kinetic-energy cutoff     =     100.0000  Ry
     charge density cutoff     =     400.0000  Ry
     cutoff for Fock operator  =     100.0000  Ry
     scf convergence threshold =      1.0E-08
     mixing beta               =       0.7000
     number of iterations used =            8  plain     mixing
     energy convergence thresh.=      1.0E-04
     force convergence thresh. =      1.0E-03
     Exchange-correlation= PBE0
                           (   6   4   8   4   0   0   0)
     EXX-fraction              =        0.50
     nstep                     =           50


     celldm(1)=  18.897261  celldm(2)=   0.000000  celldm(3)=   0.000000
     celldm(4)=   0.000000  celldm(5)=   0.000000  celldm(6)=   0.000000

     crystal axes: (cart. coord. in units of alat)
               a(1) = (   1.000000   0.000000   0.000000 )  
               a(2) = (   0.000000   1.000000   0.000000 )  
               a(3) = (   0.000000   0.000000   1.000000 )  

     reciprocal axes: (cart. coord. in units 2 pi/alat)
               b(1) = (  1.000000  0.000000  0.000000 )  
               b(2) = (  0.000000  1.000000  0.000000 )  
               b(3) = (  0.000000  0.000000  1.000000 )  


     PseudoPot. # 1 for Ti read from file:
     ../pbe/pseudo/Ti.pbe-tm-gipaw-semi-dc.UPF
     MD5 check sum: 0d5e5be629ad81857689d77ece9f3b93
     Pseudo is Norm-conserving, Zval = 12.0
     Generated by new atomic code, or converted to UPF format
     Using radial grid of 1571 points,  2 beta functions with: 
                l(1) =   0
                l(2) =   1

     PseudoPot. # 2 for F  read from file:
     ../pbe/pseudo/F.pbe-tm-new-gipaw-dc.UPF
     MD5 check sum: ce5ef009770ae7616321e2944b9cf54d
     Pseudo is Norm-conserving, Zval =  7.0
     Generated by new atomic code, or converted to UPF format
     Using radial grid of 1481 points,  1 beta functions with: 
                l(1) =   0

     atomic species   valence    mass     pseudopotential
        Ti            12.00    47.86700     Ti( 1.00)
        F              7.00    18.99800     F ( 1.00)

     Starting magnetic structure 
     atomic species   magnetization
        Ti           0.000
        F            0.000

      4 Sym. Ops. (no inversion) found


                                    s                        frac. trans.

      isym =  1     identity                                     

 cryst.   s( 1) = (     1          0          0      )
                  (     0          1          0      )
                  (     0          0          1      )

 cart.    s( 1) = (  1.0000000  0.0000000  0.0000000 )
                  (  0.0000000  1.0000000  0.0000000 )
                  (  0.0000000  0.0000000  1.0000000 )


      isym =  2     180 deg rotation - cart. axis [0,1,0]        

 cryst.   s( 2) = (    -1          0          0      )
                  (     0          1          0      )
                  (     0          0         -1      )

 cart.    s( 2) = ( -1.0000000  0.0000000  0.0000000 )
                  (  0.0000000  1.0000000  0.0000000 )
                  (  0.0000000  0.0000000 -1.0000000 )


      isym =  3     inv. 180 deg rotation - cart. axis [0,0,1]   

 cryst.   s( 3) = (     1          0          0      )
                  (     0          1          0      )
                  (     0          0         -1      )

 cart.    s( 3) = (  1.0000000  0.0000000  0.0000000 )
                  (  0.0000000  1.0000000  0.0000000 )
                  (  0.0000000  0.0000000 -1.0000000 )


      isym =  4     inv. 180 deg rotation - cart. axis [1,0,0]   

 cryst.   s( 4) = (    -1          0          0      )
                  (     0          1          0      )
                  (     0          0          1      )

 cart.    s( 4) = ( -1.0000000  0.0000000  0.0000000 )
                  (  0.0000000  1.0000000  0.0000000 )
                  (  0.0000000  0.0000000  1.0000000 )


   Cartesian axes

     site n.     atom                  positions (alat units)
         1           Ti  tau(   1) = (   0.0000000  -0.0000329   0.0000000  )
         2           F   tau(   2) = (   0.0000000   0.1787448   0.0000000  )
         3           F   tau(   3) = (   0.1547106  -0.0893559   0.0000000  )
         4           F   tau(   4) = (  -0.1547106  -0.0893559   0.0000000  )

   Crystallographic axes

     site n.     atom                  positions (cryst. coord.)
         1           Ti  tau(   1) = (  0.0000000 -0.0000329  0.0000000  )
         2           F   tau(   2) = (  0.0000000  0.1787448  0.0000000  )
         3           F   tau(   3) = (  0.1547106 -0.0893559  0.0000000  )
         4           F   tau(   4) = ( -0.1547106 -0.0893559  0.0000000  )

     number of k points=     1
                       cart. coord. in units 2pi/alat
        k(    1) = (   0.0000000   0.0000000   0.0000000), wk =   1.0000000

                       cryst. coord.
        k(    1) = (   0.0000000   0.0000000   0.0000000), wk =   1.0000000

     Dense  grid:   911913 G-vectors     FFT dimensions: ( 125, 125, 125)

     Dynamical RAM for                 wfc:       4.93 MB

     Dynamical RAM for     wfc (w. buffer):      14.78 MB

     Dynamical RAM for                 EXX:      37.68 MB

     Dynamical RAM for           str. fact:       4.64 MB

     Dynamical RAM for           local pot:       0.00 MB

     Dynamical RAM for          nlocal pot:       2.03 MB

     Dynamical RAM for                qrad:       0.28 MB

     Dynamical RAM for          rho,v,vnew:      28.94 MB

     Dynamical RAM for               rhoin:       9.65 MB

     Dynamical RAM for            rho*nmix:      74.21 MB

     Dynamical RAM for           G-vectors:       9.86 MB

     Dynamical RAM for          h,s,v(r/c):       0.05 MB

     Dynamical RAM for          <psi|beta>:       0.00 MB

     Dynamical RAM for                 psi:       9.85 MB

     Dynamical RAM for                hpsi:       9.85 MB

     Dynamical RAM for      wfcinit/wfcrot:      24.38 MB

     Estimated static dynamical RAM per process >     129.81 MB

     Estimated max dynamical RAM per process >     228.41 MB

     Estimated total dynamical RAM >       1.34 GB
     EXX: ACE will be initialized later
     Generating pointlists ...
     new r_m :   0.0737 (alat units)  1.3926 (a.u.) for type    1
     new r_m :   0.0737 (alat units)  1.3926 (a.u.) for type    2

     Initial potential from superposition of free atoms

     starting charge      31.0000, renormalised to      33.0000

     negative rho (up, down):  3.792E-04 3.792E-04
     Starting wfcs are   42 randomized atomic wfcs

     total cpu time spent up to now is        3.6 secs

     Self-consistent Calculation

     iteration #  1     ecut=   100.00 Ry     beta= 0.70
     Davidson diagonalization with overlap

---- Real-time Memory Report at c_bands before calling an iterative solver
           157 MiB given to the printing process from OS
             0 MiB allocation reported by mallinfo(arena+hblkhd)
          6165 MiB available memory on the node where the printing process lives
------------------
     ethr =  1.00E-04,  avg # of iterations =  7.5

     negative rho (up, down):  0.000E+00 5.983E-05

     total cpu time spent up to now is        8.5 secs

     total energy              =    -260.39977395 Ry
     estimated scf accuracy    <       1.94654839 Ry

     total magnetization       =     1.00 Bohr mag/cell
     absolute magnetization    =     1.00 Bohr mag/cell

     iteration #  2     ecut=   100.00 Ry     beta= 0.70
     Davidson diagonalization with overlap

---- Real-time Memory Report at c_bands before calling an iterative solver
           220 MiB given to the printing process from OS
             0 MiB allocation reported by mallinfo(arena+hblkhd)
          5637 MiB available memory on the node where the printing process lives
------------------
     ethr =  5.90E-03,  avg # of iterations =  6.0

     negative rho (up, down):  0.000E+00 4.171E-05

     total cpu time spent up to now is       13.5 secs

     total energy              =    -259.49780163 Ry
     estimated scf accuracy    <       8.40556314 Ry

     total magnetization       =     1.00 Bohr mag/cell
     absolute magnetization    =     1.02 Bohr mag/cell

     iteration #  3     ecut=   100.00 Ry     beta= 0.70
     Davidson diagonalization with overlap

---- Real-time Memory Report at c_bands before calling an iterative solver
           229 MiB given to the printing process from OS
             0 MiB allocation reported by mallinfo(arena+hblkhd)
          5586 MiB available memory on the node where the printing process lives
------------------
     ethr =  5.90E-03,  avg # of iterations =  6.0

     negative rho (up, down):  0.000E+00 1.481E-05

     total cpu time spent up to now is       18.1 secs

     total energy              =    -261.29680929 Ry
     estimated scf accuracy    <       0.64369164 Ry

     total magnetization       =     1.00 Bohr mag/cell
     absolute magnetization    =     1.08 Bohr mag/cell

     iteration #  4     ecut=   100.00 Ry     beta= 0.70
     Davidson diagonalization with overlap

---- Real-time Memory Report at c_bands before calling an iterative solver
           239 MiB given to the printing process from OS
             0 MiB allocation reported by mallinfo(arena+hblkhd)
          5560 MiB available memory on the node where the printing process lives
------------------
     ethr =  1.95E-03,  avg # of iterations =  2.0

     negative rho (up, down):  0.000E+00 2.005E-07

     total cpu time spent up to now is       21.5 secs

     total energy              =    -261.29804088 Ry
     estimated scf accuracy    <       0.17510382 Ry

     total magnetization       =     1.00 Bohr mag/cell
     absolute magnetization    =     1.07 Bohr mag/cell

     iteration #  5     ecut=   100.00 Ry     beta= 0.70
     Davidson diagonalization with overlap

---- Real-time Memory Report at c_bands before calling an iterative solver
           248 MiB given to the printing process from OS
             0 MiB allocation reported by mallinfo(arena+hblkhd)
          5502 MiB available memory on the node where the printing process lives
------------------
     ethr =  5.31E-04,  avg # of iterations =  5.0

     negative rho (up, down):  0.000E+00 2.240E-07

     total cpu time spent up to now is       25.1 secs

     total energy              =    -261.33456968 Ry
     estimated scf accuracy    <       0.00380693 Ry

     total magnetization       =     1.00 Bohr mag/cell
     absolute magnetization    =     1.06 Bohr mag/cell

     iteration #  6     ecut=   100.00 Ry     beta= 0.70
     Davidson diagonalization with overlap

---- Real-time Memory Report at c_bands before calling an iterative solver
           257 MiB given to the printing process from OS
             0 MiB allocation reported by mallinfo(arena+hblkhd)
          5452 MiB available memory on the node where the printing process lives
------------------
     ethr =  1.15E-05,  avg # of iterations =  5.0

     negative rho (up, down):  0.000E+00 3.201E-07

     total cpu time spent up to now is       29.3 secs

     total energy              =    -261.33897066 Ry
     estimated scf accuracy    <       0.00177105 Ry

     total magnetization       =     1.00 Bohr mag/cell
     absolute magnetization    =     1.04 Bohr mag/cell

     iteration #  7     ecut=   100.00 Ry     beta= 0.70
     Davidson diagonalization with overlap

---- Real-time Memory Report at c_bands before calling an iterative solver
           266 MiB given to the printing process from OS
             0 MiB allocation reported by mallinfo(arena+hblkhd)
          5384 MiB available memory on the node where the printing process lives
------------------
     ethr =  5.37E-06,  avg # of iterations =  2.5

     negative rho (up, down):  0.000E+00 4.664E-08

     total cpu time spent up to now is       32.7 secs

     total energy              =    -261.33911657 Ry
     estimated scf accuracy    <       0.00032982 Ry

     total magnetization       =     1.00 Bohr mag/cell
     absolute magnetization    =     1.06 Bohr mag/cell

     iteration #  8     ecut=   100.00 Ry     beta= 0.70
     Davidson diagonalization with overlap

---- Real-time Memory Report at c_bands before calling an iterative solver
           276 MiB given to the printing process from OS
             0 MiB allocation reported by mallinfo(arena+hblkhd)
          5331 MiB available memory on the node where the printing process lives
------------------
     ethr =  9.99E-07,  avg # of iterations =  3.5

     negative rho (up, down):  3.146E-07 1.385E-11

     total cpu time spent up to now is       36.7 secs

     total energy              =    -261.33927149 Ry
     estimated scf accuracy    <       0.00015168 Ry

     total magnetization       =     1.00 Bohr mag/cell
     absolute magnetization    =     1.09 Bohr mag/cell

     iteration #  9     ecut=   100.00 Ry     beta= 0.70
     Davidson diagonalization with overlap

---- Real-time Memory Report at c_bands before calling an iterative solver
           285 MiB given to the printing process from OS
             0 MiB allocation reported by mallinfo(arena+hblkhd)
          5257 MiB available memory on the node where the printing process lives
------------------
     ethr =  4.60E-07,  avg # of iterations =  3.0

     total cpu time spent up to now is       40.2 secs

     total energy              =    -261.33927967 Ry
     estimated scf accuracy    <       0.00008660 Ry

     total magnetization       =     1.00 Bohr mag/cell
     absolute magnetization    =     1.10 Bohr mag/cell

     iteration # 10     ecut=   100.00 Ry     beta= 0.70
     Davidson diagonalization with overlap

---- Real-time Memory Report at c_bands before calling an iterative solver
           294 MiB given to the printing process from OS
             0 MiB allocation reported by mallinfo(arena+hblkhd)
          5204 MiB available memory on the node where the printing process lives
------------------
     ethr =  2.62E-07,  avg # of iterations =  3.5

     total cpu time spent up to now is       43.8 secs

     total energy              =    -261.33929108 Ry
     estimated scf accuracy    <       0.00001116 Ry

     total magnetization       =     1.00 Bohr mag/cell
     absolute magnetization    =     1.11 Bohr mag/cell

     iteration # 11     ecut=   100.00 Ry     beta= 0.70
     Davidson diagonalization with overlap

---- Real-time Memory Report at c_bands before calling an iterative solver
           294 MiB given to the printing process from OS
             0 MiB allocation reported by mallinfo(arena+hblkhd)
          5185 MiB available memory on the node where the printing process lives
------------------
     ethr =  3.38E-08,  avg # of iterations =  5.0

     total cpu time spent up to now is       47.5 secs

     total energy              =    -261.33929499 Ry
     estimated scf accuracy    <       0.00000225 Ry

     total magnetization       =     1.00 Bohr mag/cell
     absolute magnetization    =     1.11 Bohr mag/cell

     iteration # 12     ecut=   100.00 Ry     beta= 0.70
     Davidson diagonalization with overlap

---- Real-time Memory Report at c_bands before calling an iterative solver
           294 MiB given to the printing process from OS
             0 MiB allocation reported by mallinfo(arena+hblkhd)
          5175 MiB available memory on the node where the printing process lives
------------------
     ethr =  6.82E-09,  avg # of iterations =  5.0

     total cpu time spent up to now is       51.7 secs

     total energy              =    -261.33929554 Ry
     estimated scf accuracy    <       0.00000113 Ry

     total magnetization       =     1.00 Bohr mag/cell
     absolute magnetization    =     1.11 Bohr mag/cell

     iteration # 13     ecut=   100.00 Ry     beta= 0.70
     Davidson diagonalization with overlap

---- Real-time Memory Report at c_bands before calling an iterative solver
           294 MiB given to the printing process from OS
             0 MiB allocation reported by mallinfo(arena+hblkhd)
          5169 MiB available memory on the node where the printing process lives
------------------
     ethr =  3.42E-09,  avg # of iterations =  4.5

     total cpu time spent up to now is       55.6 secs

     total energy              =    -261.33929598 Ry
     estimated scf accuracy    <       0.00000012 Ry

     total magnetization       =     1.00 Bohr mag/cell
     absolute magnetization    =     1.11 Bohr mag/cell

     iteration # 14     ecut=   100.00 Ry     beta= 0.70
     Davidson diagonalization with overlap

---- Real-time Memory Report at c_bands before calling an iterative solver
           294 MiB given to the printing process from OS
             0 MiB allocation reported by mallinfo(arena+hblkhd)
          5169 MiB available memory on the node where the printing process lives
------------------
     ethr =  3.70E-10,  avg # of iterations =  3.5

     total cpu time spent up to now is       59.5 secs

     total energy              =    -261.33929603 Ry
     estimated scf accuracy    <       0.00000002 Ry

     total magnetization       =     1.00 Bohr mag/cell
     absolute magnetization    =     1.11 Bohr mag/cell

     iteration # 15     ecut=   100.00 Ry     beta= 0.70
     Davidson diagonalization with overlap

---- Real-time Memory Report at c_bands before calling an iterative solver
           294 MiB given to the printing process from OS
             0 MiB allocation reported by mallinfo(arena+hblkhd)
          5169 MiB available memory on the node where the printing process lives
------------------
     ethr =  4.58E-11,  avg # of iterations =  5.0

     Magnetic moment per site  (integrated on atomic sphere of radius R)
     atom   1 (R=0.074)  charge=  8.0955  magn=  0.4820
     atom   2 (R=0.074)  charge=  6.0338  magn= -0.0168
     atom   3 (R=0.074)  charge=  6.0335  magn= -0.0169
     atom   4 (R=0.074)  charge=  6.0335  magn= -0.0169

     total cpu time spent up to now is       63.7 secs

     End of self-consistent calculation

 ------ SPIN UP ------------


          k = 0.0000 0.0000 0.0000 (113801 PWs)   bands (ev):

   -63.0054 -39.5677 -39.5657 -39.2131 -28.4108 -27.9749 -27.9745 -10.6359
   -10.6355 -10.6313  -9.9271  -9.9247  -9.6075  -9.5303  -9.5287  -9.3052
    -4.8114

     occupation numbers 
     1.0000   1.0000   1.0000   1.0000   1.0000   1.0000   1.0000   1.0000
     1.0000   1.0000   1.0000   1.0000   1.0000   1.0000   1.0000   1.0000
     1.0000

 ------ SPIN DOWN ----------


          k = 0.0000 0.0000 0.0000 (113801 PWs)   bands (ev):

   -62.2771 -39.0326 -39.0292 -38.1314 -28.4336 -27.9794 -27.9788 -10.5864
   -10.5859 -10.5589  -9.9193  -9.9172  -9.6163  -9.5429  -9.5414  -9.3283
    -2.9970

     occupation numbers 
     1.0000   1.0000   1.0000   1.0000   1.0000   1.0000   1.0000   1.0000
     1.0000   1.0000   1.0000   1.0000   1.0000   1.0000   1.0000   1.0000
     0.0000

     highest occupied, lowest unoccupied level (ev):    -4.8114   -2.9970

!    total energy              =    -261.33929603 Ry
     estimated scf accuracy    <          9.6E-09 Ry

     total magnetization       =     1.00 Bohr mag/cell
     absolute magnetization    =     1.11 Bohr mag/cell

     convergence has been achieved in  15 iterations

     Using ACE for calculation of exact exchange

     EXX grid:   113801 G-vectors     FFT dimensions: (  64,  64,  64)
     ACE projected onto    17 (nbndproj) and applied to    17 (nbnd) bands

     EXX: now go back to refine exchange calculation

     total cpu time spent up to now is       66.7 secs

     Self-consistent Calculation

     iteration #  1     ecut=   100.00 Ry     beta= 0.70
     Davidson diagonalization with overlap

---- Real-time Memory Report at c_bands before calling an iterative solver
           300 MiB given to the printing process from OS
             0 MiB allocation reported by mallinfo(arena+hblkhd)
          5808 MiB available memory on the node where the printing process lives
------------------
     ethr =  4.58E-11,  avg # of iterations = 17.0

     total cpu time spent up to now is       80.6 secs

     total energy              =    -261.18868384 Ry
     estimated scf accuracy    <       0.03560817 Ry

     total magnetization       =     1.00 Bohr mag/cell
     absolute magnetization    =     1.12 Bohr mag/cell

     iteration #  2     ecut=   100.00 Ry     beta= 0.70
     Davidson diagonalization with overlap

---- Real-time Memory Report at c_bands before calling an iterative solver
           300 MiB given to the printing process from OS
             0 MiB allocation reported by mallinfo(arena+hblkhd)
          5293 MiB available memory on the node where the printing process lives
------------------
     ethr =  1.08E-04,  avg # of iterations =  5.0

     total cpu time spent up to now is       85.0 secs

     total energy              =    -261.19951949 Ry
     estimated scf accuracy    <       0.02199153 Ry

     total magnetization       =     1.00 Bohr mag/cell
     absolute magnetization    =     1.13 Bohr mag/cell

     iteration #  3     ecut=   100.00 Ry     beta= 0.70
     Davidson diagonalization with overlap

---- Real-time Memory Report at c_bands before calling an iterative solver
           300 MiB given to the printing process from OS
             0 MiB allocation reported by mallinfo(arena+hblkhd)
          5239 MiB available memory on the node where the printing process lives
------------------
     ethr =  6.66E-05,  avg # of iterations =  3.0

     total cpu time spent up to now is       88.8 secs

     total energy              =    -261.20433098 Ry
     estimated scf accuracy    <       0.00013928 Ry

     total magnetization       =     1.00 Bohr mag/cell
     absolute magnetization    =     1.13 Bohr mag/cell

     iteration #  4     ecut=   100.00 Ry     beta= 0.70
     Davidson diagonalization with overlap

---- Real-time Memory Report at c_bands before calling an iterative solver
           300 MiB given to the printing process from OS
             0 MiB allocation reported by mallinfo(arena+hblkhd)
          5184 MiB available memory on the node where the printing process lives
------------------
     ethr =  4.22E-07,  avg # of iterations =  5.5

     total cpu time spent up to now is       93.7 secs

     total energy              =    -261.20455243 Ry
     estimated scf accuracy    <       0.00016528 Ry

     total magnetization       =     1.00 Bohr mag/cell
     absolute magnetization    =     1.13 Bohr mag/cell

     iteration #  5     ecut=   100.00 Ry     beta= 0.70
     Davidson diagonalization with overlap

---- Real-time Memory Report at c_bands before calling an iterative solver
           300 MiB given to the printing process from OS
             0 MiB allocation reported by mallinfo(arena+hblkhd)
          5129 MiB available memory on the node where the printing process lives
------------------
     ethr =  4.22E-07,  avg # of iterations =  2.5

     total cpu time spent up to now is       97.2 secs

     total energy              =    -261.20456093 Ry
     estimated scf accuracy    <       0.00001818 Ry

     total magnetization       =     1.00 Bohr mag/cell
     absolute magnetization    =     1.13 Bohr mag/cell

     iteration #  6     ecut=   100.00 Ry     beta= 0.70
     Davidson diagonalization with overlap

---- Real-time Memory Report at c_bands before calling an iterative solver
           307 MiB given to the printing process from OS
             0 MiB allocation reported by mallinfo(arena+hblkhd)
          5052 MiB available memory on the node where the printing process lives
------------------
     ethr =  5.51E-08,  avg # of iterations =  4.0

     total cpu time spent up to now is      101.6 secs

     total energy              =    -261.20457082 Ry
     estimated scf accuracy    <       0.00000205 Ry

     total magnetization       =     1.00 Bohr mag/cell
     absolute magnetization    =     1.13 Bohr mag/cell

     iteration #  7     ecut=   100.00 Ry     beta= 0.70
     Davidson diagonalization with overlap

---- Real-time Memory Report at c_bands before calling an iterative solver
           316 MiB given to the printing process from OS
             0 MiB allocation reported by mallinfo(arena+hblkhd)
          4985 MiB available memory on the node where the printing process lives
------------------
     ethr =  6.20E-09,  avg # of iterations =  1.0

     total cpu time spent up to now is      104.8 secs

     total energy              =    -261.20457033 Ry
     estimated scf accuracy    <       0.00000110 Ry

     total magnetization       =     1.00 Bohr mag/cell
     absolute magnetization    =     1.13 Bohr mag/cell

     iteration #  8     ecut=   100.00 Ry     beta= 0.70
     Davidson diagonalization with overlap

---- Real-time Memory Report at c_bands before calling an iterative solver
           325 MiB given to the printing process from OS
             0 MiB allocation reported by mallinfo(arena+hblkhd)
          4922 MiB available memory on the node where the printing process lives
------------------
     ethr =  3.33E-09,  avg # of iterations =  2.5

     total cpu time spent up to now is      108.6 secs

     total energy              =    -261.20457048 Ry
     estimated scf accuracy    <       0.00000006 Ry

     total magnetization       =     1.00 Bohr mag/cell
     absolute magnetization    =     1.13 Bohr mag/cell

     iteration #  9     ecut=   100.00 Ry     beta= 0.70
     Davidson diagonalization with overlap

---- Real-time Memory Report at c_bands before calling an iterative solver
           334 MiB given to the printing process from OS
             0 MiB allocation reported by mallinfo(arena+hblkhd)
          4876 MiB available memory on the node where the printing process lives
------------------
     ethr =  1.91E-10,  avg # of iterations =  4.0

     Magnetic moment per site  (integrated on atomic sphere of radius R)
     atom   1 (R=0.074)  charge=  8.0291  magn=  0.5115
     atom   2 (R=0.074)  charge=  6.0865  magn= -0.0187
     atom   3 (R=0.074)  charge=  6.0862  magn= -0.0187
     atom   4 (R=0.074)  charge=  6.0862  magn= -0.0187

     total cpu time spent up to now is      112.6 secs

     End of self-consistent calculation

 ------ SPIN UP ------------


          k = 0.0000 0.0000 0.0000 (113801 PWs)   bands (ev):

   -73.5208 -46.9267 -46.9238 -46.7136 -35.9317 -35.3708 -35.3692 -14.6998
   -14.5961 -14.5937 -13.7382 -13.7335 -13.4657 -13.4647 -13.4292 -13.2580
    -8.1297

     occupation numbers 
     1.0000   1.0000   1.0000   1.0000   1.0000   1.0000   1.0000   1.0000
     1.0000   1.0000   1.0000   1.0000   1.0000   1.0000   1.0000   1.0000
     1.0000

 ------ SPIN DOWN ----------


          k = 0.0000 0.0000 0.0000 (113801 PWs)   bands (ev):

   -72.4336 -46.1163 -46.1112 -44.7592 -35.9870 -35.3847 -35.3828 -14.5841
   -14.5778 -14.5754 -13.7972 -13.7929 -13.5054 -13.5042 -13.4972 -13.3160
    -0.7188

     occupation numbers 
     1.0000   1.0000   1.0000   1.0000   1.0000   1.0000   1.0000   1.0000
     1.0000   1.0000   1.0000   1.0000   1.0000   1.0000   1.0000   1.0000
     0.0000

     highest occupied, lowest unoccupied level (ev):    -8.1297   -0.7188

!    total energy              =    -261.20457052 Ry
     estimated scf accuracy    <          2.7E-09 Ry

     total magnetization       =     1.00 Bohr mag/cell
     absolute magnetization    =     1.13 Bohr mag/cell

     convergence has been achieved in   9 iterations

     Using ACE for calculation of exact exchange
     ACE projected onto    17 (nbndproj) and applied to    17 (nbnd) bands

     total energy              =    -261.21740068 Ry
     Harris-Foulkes estimate   =    -261.21740068 Ry
     est. exchange err (dexx)  =       0.01283016 Ry
     - averaged Fock potential =      39.51951778 Ry
     + Fock energy (ACE)       =     -19.82656497 Ry

     EXX: now go back to refine exchange calculation

     total cpu time spent up to now is      114.9 secs

     Self-consistent Calculation

     iteration #  1     ecut=   100.00 Ry     beta= 0.70
     Davidson diagonalization with overlap

---- Real-time Memory Report at c_bands before calling an iterative solver
           334 MiB given to the printing process from OS
             0 MiB allocation reported by mallinfo(arena+hblkhd)
          5822 MiB available memory on the node where the printing process lives
------------------
     ethr =  1.91E-10,  avg # of iterations = 13.0

     total cpu time spent up to now is      125.3 secs

     total energy              =    -261.22100006 Ry
     estimated scf accuracy    <       0.00300445 Ry

     total magnetization       =     1.00 Bohr mag/cell
     absolute magnetization    =     1.12 Bohr mag/cell

     iteration #  2     ecut=   100.00 Ry     beta= 0.70
     Davidson diagonalization with overlap

---- Real-time Memory Report at c_bands before calling an iterative solver
           334 MiB given to the printing process from OS
             0 MiB allocation reported by mallinfo(arena+hblkhd)
          5282 MiB available memory on the node where the printing process lives
------------------
     ethr =  9.10E-06,  avg # of iterations =  4.5

     total cpu time spent up to now is      129.6 secs

     total energy              =    -261.22195509 Ry
     estimated scf accuracy    <       0.00164979 Ry

     total magnetization       =     1.00 Bohr mag/cell
     absolute magnetization    =     1.13 Bohr mag/cell

     iteration #  3     ecut=   100.00 Ry     beta= 0.70
     Davidson diagonalization with overlap

---- Real-time Memory Report at c_bands before calling an iterative solver
           334 MiB given to the printing process from OS
             0 MiB allocation reported by mallinfo(arena+hblkhd)
          5222 MiB available memory on the node where the printing process lives
------------------
     ethr =  5.00E-06,  avg # of iterations =  2.5

     total cpu time spent up to now is      133.8 secs

     total energy              =    -261.22229003 Ry
     estimated scf accuracy    <       0.00001479 Ry

     total magnetization       =     1.00 Bohr mag/cell
     absolute magnetization    =     1.13 Bohr mag/cell

     iteration #  4     ecut=   100.00 Ry     beta= 0.70
     Davidson diagonalization with overlap

---- Real-time Memory Report at c_bands before calling an iterative solver
           334 MiB given to the printing process from OS
             0 MiB allocation reported by mallinfo(arena+hblkhd)
          5145 MiB available memory on the node where the printing process lives
------------------
     ethr =  4.48E-08,  avg # of iterations =  5.0

     total cpu time spent up to now is      138.6 secs

     total energy              =    -261.22230840 Ry
     estimated scf accuracy    <       0.00001519 Ry

     total magnetization       =     1.00 Bohr mag/cell
     absolute magnetization    =     1.13 Bohr mag/cell

     iteration #  5     ecut=   100.00 Ry     beta= 0.70
     Davidson diagonalization with overlap

---- Real-time Memory Report at c_bands before calling an iterative solver
           334 MiB given to the printing process from OS
             0 MiB allocation reported by mallinfo(arena+hblkhd)
          5102 MiB available memory on the node where the printing process lives
------------------
     ethr =  4.48E-08,  avg # of iterations =  2.0

     total cpu time spent up to now is      142.0 secs

     total energy              =    -261.22230821 Ry
     estimated scf accuracy    <       0.00000251 Ry

     total magnetization       =     1.00 Bohr mag/cell
     absolute magnetization    =     1.13 Bohr mag/cell

     iteration #  6     ecut=   100.00 Ry     beta= 0.70
     Davidson diagonalization with overlap

---- Real-time Memory Report at c_bands before calling an iterative solver
           334 MiB given to the printing process from OS
             0 MiB allocation reported by mallinfo(arena+hblkhd)
          5050 MiB available memory on the node where the printing process lives
------------------
     ethr =  7.61E-09,  avg # of iterations =  4.0

     total cpu time spent up to now is      146.4 secs

     total energy              =    -261.22230943 Ry
     estimated scf accuracy    <       0.00000030 Ry

     total magnetization       =     1.00 Bohr mag/cell
     absolute magnetization    =     1.13 Bohr mag/cell

     iteration #  7     ecut=   100.00 Ry     beta= 0.70
     Davidson diagonalization with overlap

---- Real-time Memory Report at c_bands before calling an iterative solver
           334 MiB given to the printing process from OS
             0 MiB allocation reported by mallinfo(arena+hblkhd)
          5018 MiB available memory on the node where the printing process lives
------------------
     ethr =  9.20E-10,  avg # of iterations =  2.0

     total cpu time spent up to now is      149.8 secs

     total energy              =    -261.22230942 Ry
     estimated scf accuracy    <       0.00000005 Ry

     total magnetization       =     1.00 Bohr mag/cell
     absolute magnetization    =     1.13 Bohr mag/cell

     iteration #  8     ecut=   100.00 Ry     beta= 0.70
     Davidson diagonalization with overlap

---- Real-time Memory Report at c_bands before calling an iterative solver
           334 MiB given to the printing process from OS
             0 MiB allocation reported by mallinfo(arena+hblkhd)
          4969 MiB available memory on the node where the printing process lives
------------------
     ethr =  1.60E-10,  avg # of iterations =  5.0

     total cpu time spent up to now is      154.6 secs

     total energy              =    -261.22230944 Ry
     estimated scf accuracy    <       0.00000002 Ry

     total magnetization       =     1.00 Bohr mag/cell
     absolute magnetization    =     1.13 Bohr mag/cell

     iteration #  9     ecut=   100.00 Ry     beta= 0.70
     Davidson diagonalization with overlap

---- Real-time Memory Report at c_bands before calling an iterative solver
           335 MiB given to the printing process from OS
             0 MiB allocation reported by mallinfo(arena+hblkhd)
          4903 MiB available memory on the node where the printing process lives
------------------
     ethr =  5.65E-11,  avg # of iterations =  3.0

     Magnetic moment per site  (integrated on atomic sphere of radius R)
     atom   1 (R=0.074)  charge=  8.0155  magn=  0.5311
     atom   2 (R=0.074)  charge=  6.1007  magn= -0.0184
     atom   3 (R=0.074)  charge=  6.1004  magn= -0.0185
     atom   4 (R=0.074)  charge=  6.1004  magn= -0.0185

     total cpu time spent up to now is      158.2 secs

     End of self-consistent calculation

 ------ SPIN UP ------------


          k = 0.0000 0.0000 0.0000 (113801 PWs)   bands (ev):

   -73.7637 -47.0990 -47.0964 -46.9557 -35.8536 -35.3066 -35.3047 -14.6840
   -14.5445 -14.5427 -13.6885 -13.6849 -13.4041 -13.4029 -13.3794 -13.1815
    -8.4847

     occupation numbers 
     1.0000   1.0000   1.0000   1.0000   1.0000   1.0000   1.0000   1.0000
     1.0000   1.0000   1.0000   1.0000   1.0000   1.0000   1.0000   1.0000
     1.0000

 ------ SPIN DOWN ----------


          k = 0.0000 0.0000 0.0000 (113801 PWs)   bands (ev):

   -72.6288 -46.2503 -46.2452 -44.8876 -35.9137 -35.3264 -35.3243 -14.5440
   -14.5281 -14.5267 -13.7487 -13.7454 -13.4501 -13.4489 -13.4488 -13.2413
    -0.8027

     occupation numbers 
     1.0000   1.0000   1.0000   1.0000   1.0000   1.0000   1.0000   1.0000
     1.0000   1.0000   1.0000   1.0000   1.0000   1.0000   1.0000   1.0000
     0.0000

     highest occupied, lowest unoccupied level (ev):    -8.4847   -0.8027

!    total energy              =    -261.22230945 Ry
     estimated scf accuracy    <          2.9E-10 Ry

     total magnetization       =     1.00 Bohr mag/cell
     absolute magnetization    =     1.13 Bohr mag/cell

     convergence has been achieved in   9 iterations

     Using ACE for calculation of exact exchange
     ACE projected onto    17 (nbndproj) and applied to    17 (nbnd) bands

     total energy              =    -261.22445237 Ry
     Harris-Foulkes estimate   =    -261.22445237 Ry
     est. exchange err (dexx)  =       0.00214292 Ry
     - averaged Fock potential =      39.69380158 Ry
     + Fock energy (ACE)       =     -19.86937954 Ry

     EXX: now go back to refine exchange calculation

     total cpu time spent up to now is      161.3 secs

     Self-consistent Calculation

     iteration #  1     ecut=   100.00 Ry     beta= 0.70
     Davidson diagonalization with overlap

---- Real-time Memory Report at c_bands before calling an iterative solver
           335 MiB given to the printing process from OS
             0 MiB allocation reported by mallinfo(arena+hblkhd)
          5868 MiB available memory on the node where the printing process lives
------------------
     ethr =  5.65E-11,  avg # of iterations = 12.5

     total cpu time spent up to now is      173.9 secs

     total energy              =    -261.22533307 Ry
     estimated scf accuracy    <       0.00037800 Ry

     total magnetization       =     1.00 Bohr mag/cell
     absolute magnetization    =     1.12 Bohr mag/cell

     iteration #  2     ecut=   100.00 Ry     beta= 0.70
     Davidson diagonalization with overlap

---- Real-time Memory Report at c_bands before calling an iterative solver
           335 MiB given to the printing process from OS
             0 MiB allocation reported by mallinfo(arena+hblkhd)
          5236 MiB available memory on the node where the printing process lives
------------------
     ethr =  1.15E-06,  avg # of iterations =  4.0

     total cpu time spent up to now is      179.1 secs

     total energy              =    -261.22543535 Ry
     estimated scf accuracy    <       0.00018021 Ry

     total magnetization       =     1.00 Bohr mag/cell
     absolute magnetization    =     1.12 Bohr mag/cell

     iteration #  3     ecut=   100.00 Ry     beta= 0.70
     Davidson diagonalization with overlap

---- Real-time Memory Report at c_bands before calling an iterative solver
           335 MiB given to the printing process from OS
             0 MiB allocation reported by mallinfo(arena+hblkhd)
          5215 MiB available memory on the node where the printing process lives
------------------
     ethr =  5.46E-07,  avg # of iterations =  2.0

     total cpu time spent up to now is      183.7 secs

     total energy              =    -261.22547372 Ry
     estimated scf accuracy    <       0.00000170 Ry

     total magnetization       =     1.00 Bohr mag/cell
     absolute magnetization    =     1.12 Bohr mag/cell

     iteration #  4     ecut=   100.00 Ry     beta= 0.70
     Davidson diagonalization with overlap

---- Real-time Memory Report at c_bands before calling an iterative solver
           335 MiB given to the printing process from OS
             0 MiB allocation reported by mallinfo(arena+hblkhd)
          5148 MiB available memory on the node where the printing process lives
------------------
     ethr =  5.15E-09,  avg # of iterations =  5.0

     total cpu time spent up to now is      189.1 secs

     total energy              =    -261.22547631 Ry
     estimated scf accuracy    <       0.00000328 Ry

     total magnetization       =     1.00 Bohr mag/cell
     absolute magnetization    =     1.12 Bohr mag/cell

     iteration #  5     ecut=   100.00 Ry     beta= 0.70
     Davidson diagonalization with overlap

---- Real-time Memory Report at c_bands before calling an iterative solver
           335 MiB given to the printing process from OS
             0 MiB allocation reported by mallinfo(arena+hblkhd)
          5111 MiB available memory on the node where the printing process lives
------------------
     ethr =  5.15E-09,  avg # of iterations =  3.0

     total cpu time spent up to now is      193.0 secs

     total energy              =    -261.22547630 Ry
     estimated scf accuracy    <       0.00000048 Ry

     total magnetization       =     1.00 Bohr mag/cell
     absolute magnetization    =     1.12 Bohr mag/cell

     iteration #  6     ecut=   100.00 Ry     beta= 0.70
     Davidson diagonalization with overlap

---- Real-time Memory Report at c_bands before calling an iterative solver
           335 MiB given to the printing process from OS
             0 MiB allocation reported by mallinfo(arena+hblkhd)
          5050 MiB available memory on the node where the printing process lives
------------------
     ethr =  1.46E-09,  avg # of iterations =  4.0

     total cpu time spent up to now is      197.5 secs

     total energy              =    -261.22547650 Ry
     estimated scf accuracy    <       0.00000006 Ry

     total magnetization       =     1.00 Bohr mag/cell
     absolute magnetization    =     1.12 Bohr mag/cell

     iteration #  7     ecut=   100.00 Ry     beta= 0.70
     Davidson diagonalization with overlap

---- Real-time Memory Report at c_bands before calling an iterative solver
           335 MiB given to the printing process from OS
             0 MiB allocation reported by mallinfo(arena+hblkhd)
          5002 MiB available memory on the node where the printing process lives
------------------
     ethr =  1.94E-10,  avg # of iterations =  2.0

     Magnetic moment per site  (integrated on atomic sphere of radius R)
     atom   1 (R=0.074)  charge=  8.0138  magn=  0.5432
     atom   2 (R=0.074)  charge=  6.1054  magn= -0.0178
     atom   3 (R=0.074)  charge=  6.1050  magn= -0.0178
     atom   4 (R=0.074)  charge=  6.1050  magn= -0.0178

     total cpu time spent up to now is      201.0 secs

     End of self-consistent calculation

 ------ SPIN UP ------------


          k = 0.0000 0.0000 0.0000 (113801 PWs)   bands (ev):

   -73.8329 -47.1447 -47.1422 -47.0434 -35.8133 -35.2705 -35.2684 -14.6815
   -14.5134 -14.5118 -13.6663 -13.6633 -13.3769 -13.3755 -13.3627 -13.1473
    -8.6481

     occupation numbers 
     1.0000   1.0000   1.0000   1.0000   1.0000   1.0000   1.0000   1.0000
     1.0000   1.0000   1.0000   1.0000   1.0000   1.0000   1.0000   1.0000
     1.0000

 ------ SPIN DOWN ----------


          k = 0.0000 0.0000 0.0000 (113801 PWs)   bands (ev):

   -72.6668 -46.2763 -46.2711 -44.8954 -35.8717 -35.2889 -35.2867 -14.5212
   -14.4949 -14.4939 -13.7225 -13.7197 -13.4278 -13.4221 -13.4206 -13.2057
    -0.8209

     occupation numbers 
     1.0000   1.0000   1.0000   1.0000   1.0000   1.0000   1.0000   1.0000
     1.0000   1.0000   1.0000   1.0000   1.0000   1.0000   1.0000   1.0000
     0.0000

     highest occupied, lowest unoccupied level (ev):    -8.6481   -0.8209

!    total energy              =    -261.22547651 Ry
     estimated scf accuracy    <          6.6E-09 Ry

     total magnetization       =     1.00 Bohr mag/cell
     absolute magnetization    =     1.12 Bohr mag/cell

     convergence has been achieved in   7 iterations

     Using ACE for calculation of exact exchange
     ACE projected onto    17 (nbndproj) and applied to    17 (nbnd) bands

     total energy              =    -261.22598980 Ry
     Harris-Foulkes estimate   =    -261.22598981 Ry
     est. exchange err (dexx)  =       0.00051329 Ry
     - averaged Fock potential =      39.75629900 Ry
     + Fock energy (ACE)       =     -19.88743276 Ry

     EXX: now go back to refine exchange calculation

     total cpu time spent up to now is      204.1 secs

     Self-consistent Calculation

     iteration #  1     ecut=   100.00 Ry     beta= 0.70
     Davidson diagonalization with overlap

---- Real-time Memory Report at c_bands before calling an iterative solver
           335 MiB given to the printing process from OS
             0 MiB allocation reported by mallinfo(arena+hblkhd)
          5865 MiB available memory on the node where the printing process lives
------------------
     ethr =  1.94E-10,  avg # of iterations =  9.0

     total cpu time spent up to now is      213.5 secs

     total energy              =    -261.22623880 Ry
     estimated scf accuracy    <       0.00006929 Ry

     total magnetization       =     1.00 Bohr mag/cell
     absolute magnetization    =     1.12 Bohr mag/cell

     iteration #  2     ecut=   100.00 Ry     beta= 0.70
     Davidson diagonalization with overlap

---- Real-time Memory Report at c_bands before calling an iterative solver
           335 MiB given to the printing process from OS
             0 MiB allocation reported by mallinfo(arena+hblkhd)
          5263 MiB available memory on the node where the printing process lives
------------------
     ethr =  2.10E-07,  avg # of iterations =  4.0

     total cpu time spent up to now is      217.8 secs

     total energy              =    -261.22625289 Ry
     estimated scf accuracy    <       0.00002501 Ry

     total magnetization       =     1.00 Bohr mag/cell
     absolute magnetization    =     1.12 Bohr mag/cell

     iteration #  3     ecut=   100.00 Ry     beta= 0.70
     Davidson diagonalization with overlap

---- Real-time Memory Report at c_bands before calling an iterative solver
           335 MiB given to the printing process from OS
             0 MiB allocation reported by mallinfo(arena+hblkhd)
          5199 MiB available memory on the node where the printing process lives
------------------
     ethr =  7.58E-08,  avg # of iterations =  3.0

     total cpu time spent up to now is      222.6 secs

     total energy              =    -261.22625926 Ry
     estimated scf accuracy    <       0.00000055 Ry

     total magnetization       =     1.00 Bohr mag/cell
     absolute magnetization    =     1.12 Bohr mag/cell

     iteration #  4     ecut=   100.00 Ry     beta= 0.70
     Davidson diagonalization with overlap

---- Real-time Memory Report at c_bands before calling an iterative solver
           335 MiB given to the printing process from OS
             0 MiB allocation reported by mallinfo(arena+hblkhd)
          5136 MiB available memory on the node where the printing process lives
------------------
     ethr =  1.67E-09,  avg # of iterations =  4.0

     total cpu time spent up to now is      227.3 secs

     total energy              =    -261.22625936 Ry
     estimated scf accuracy    <       0.00000011 Ry

     total magnetization       =     1.00 Bohr mag/cell
     absolute magnetization    =     1.12 Bohr mag/cell

     iteration #  5     ecut=   100.00 Ry     beta= 0.70
     Davidson diagonalization with overlap

---- Real-time Memory Report at c_bands before calling an iterative solver
           335 MiB given to the printing process from OS
             0 MiB allocation reported by mallinfo(arena+hblkhd)
          5042 MiB available memory on the node where the printing process lives
------------------
     ethr =  3.21E-10,  avg # of iterations =  4.0

     total cpu time spent up to now is      232.6 secs

     total energy              =    -261.22625940 Ry
     estimated scf accuracy    <       0.00000001 Ry

     total magnetization       =     1.00 Bohr mag/cell
     absolute magnetization    =     1.12 Bohr mag/cell

     iteration #  6     ecut=   100.00 Ry     beta= 0.70
     Davidson diagonalization with overlap

---- Real-time Memory Report at c_bands before calling an iterative solver
           335 MiB given to the printing process from OS
             0 MiB allocation reported by mallinfo(arena+hblkhd)
          4976 MiB available memory on the node where the printing process lives
------------------
     ethr =  4.07E-11,  avg # of iterations =  2.0

     Magnetic moment per site  (integrated on atomic sphere of radius R)
     atom   1 (R=0.074)  charge=  8.0145  magn=  0.5502
     atom   2 (R=0.074)  charge=  6.1072  magn= -0.0172
     atom   3 (R=0.074)  charge=  6.1069  magn= -0.0172
     atom   4 (R=0.074)  charge=  6.1069  magn= -0.0172

     total cpu time spent up to now is      236.5 secs

     End of self-consistent calculation

 ------ SPIN UP ------------


          k = 0.0000 0.0000 0.0000 (113801 PWs)   bands (ev):

   -73.8492 -47.1526 -47.1502 -47.0760 -35.7939 -35.2524 -35.2503 -14.6813
   -14.4964 -14.4949 -13.6562 -13.6534 -13.3630 -13.3615 -13.3565 -13.1302
    -8.7242

     occupation numbers 
     1.0000   1.0000   1.0000   1.0000   1.0000   1.0000   1.0000   1.0000
     1.0000   1.0000   1.0000   1.0000   1.0000   1.0000   1.0000   1.0000
     1.0000

 ------ SPIN DOWN ----------


          k = 0.0000 0.0000 0.0000 (113801 PWs)   bands (ev):

   -72.6641 -46.2733 -46.2681 -44.8779 -35.8497 -35.2680 -35.2657 -14.5075
   -14.4758 -14.4749 -13.7080 -13.7053 -13.4165 -13.4064 -13.4049 -13.1869
    -0.8253

     occupation numbers 
     1.0000   1.0000   1.0000   1.0000   1.0000   1.0000   1.0000   1.0000
     1.0000   1.0000   1.0000   1.0000   1.0000   1.0000   1.0000   1.0000
     0.0000

     highest occupied, lowest unoccupied level (ev):    -8.7242   -0.8253

!    total energy              =    -261.22625940 Ry
     estimated scf accuracy    <          8.6E-10 Ry

     total magnetization       =     1.00 Bohr mag/cell
     absolute magnetization    =     1.12 Bohr mag/cell

     convergence has been achieved in   6 iterations

     Using ACE for calculation of exact exchange
     ACE projected onto    17 (nbndproj) and applied to    17 (nbnd) bands

     total energy              =    -261.22640361 Ry
     Harris-Foulkes estimate   =    -261.22640361 Ry
     est. exchange err (dexx)  =       0.00014420 Ry
     - averaged Fock potential =      39.78339030 Ry
     + Fock energy (ACE)       =     -19.89610174 Ry

     EXX: now go back to refine exchange calculation

     total cpu time spent up to now is      239.2 secs

     Self-consistent Calculation

     iteration #  1     ecut=   100.00 Ry     beta= 0.70
     Davidson diagonalization with overlap

---- Real-time Memory Report at c_bands before calling an iterative solver
           335 MiB given to the printing process from OS
             0 MiB allocation reported by mallinfo(arena+hblkhd)
          5856 MiB available memory on the node where the printing process lives
------------------
     ethr =  4.07E-11,  avg # of iterations =  9.5

     total cpu time spent up to now is      247.2 secs

     total energy              =    -261.22647908 Ry
     estimated scf accuracy    <       0.00001666 Ry

     total magnetization       =     1.00 Bohr mag/cell
     absolute magnetization    =     1.12 Bohr mag/cell

     iteration #  2     ecut=   100.00 Ry     beta= 0.70
     Davidson diagonalization with overlap

---- Real-time Memory Report at c_bands before calling an iterative solver
           335 MiB given to the printing process from OS
             0 MiB allocation reported by mallinfo(arena+hblkhd)
          5266 MiB available memory on the node where the printing process lives
------------------
     ethr =  5.05E-08,  avg # of iterations =  2.5

     total cpu time spent up to now is      252.0 secs

     total energy              =    -261.22648193 Ry
     estimated scf accuracy    <       0.00000336 Ry

     total magnetization       =     1.00 Bohr mag/cell
     absolute magnetization    =     1.12 Bohr mag/cell

     iteration #  3     ecut=   100.00 Ry     beta= 0.70
     Davidson diagonalization with overlap

---- Real-time Memory Report at c_bands before calling an iterative solver
           335 MiB given to the printing process from OS
             0 MiB allocation reported by mallinfo(arena+hblkhd)
          5198 MiB available memory on the node where the printing process lives
------------------
     ethr =  1.02E-08,  avg # of iterations =  2.5

     total cpu time spent up to now is      257.0 secs

     total energy              =    -261.22648279 Ry
     estimated scf accuracy    <       0.00000017 Ry

     total magnetization       =     1.00 Bohr mag/cell
     absolute magnetization    =     1.12 Bohr mag/cell

     iteration #  4     ecut=   100.00 Ry     beta= 0.70
     Davidson diagonalization with overlap

---- Real-time Memory Report at c_bands before calling an iterative solver
           335 MiB given to the printing process from OS
             0 MiB allocation reported by mallinfo(arena+hblkhd)
          5158 MiB available memory on the node where the printing process lives
------------------
     ethr =  5.01E-10,  avg # of iterations =  2.0

     Magnetic moment per site  (integrated on atomic sphere of radius R)
     atom   1 (R=0.074)  charge=  8.0154  magn=  0.5543
     atom   2 (R=0.074)  charge=  6.1081  magn= -0.0167
     atom   3 (R=0.074)  charge=  6.1078  magn= -0.0167
     atom   4 (R=0.074)  charge=  6.1078  magn= -0.0167

     total cpu time spent up to now is      261.3 secs

     End of self-consistent calculation

 ------ SPIN UP ------------


          k = 0.0000 0.0000 0.0000 (113801 PWs)   bands (ev):

   -73.8510 -47.1512 -47.1489 -47.0890 -35.7844 -35.2433 -35.2411 -14.6815
   -14.4872 -14.4858 -13.6514 -13.6487 -13.3554 -13.3539 -13.3539 -13.1211
    -8.7611

     occupation numbers 
     1.0000   1.0000   1.0000   1.0000   1.0000   1.0000   1.0000   1.0000
     1.0000   1.0000   1.0000   1.0000   1.0000   1.0000   1.0000   1.0000
     1.0000

 ------ SPIN DOWN ----------


          k = 0.0000 0.0000 0.0000 (113801 PWs)   bands (ev):

   -72.6549 -46.2660 -46.2607 -44.8611 -35.8378 -35.2563 -35.2540 -14.4991
   -14.4649 -14.4640 -13.6996 -13.6969 -13.4097 -13.3973 -13.3958 -13.1763
    -0.8259

     occupation numbers 
     1.0000   1.0000   1.0000   1.0000   1.0000   1.0000   1.0000   1.0000
     1.0000   1.0000   1.0000   1.0000   1.0000   1.0000   1.0000   1.0000
     0.0000

     highest occupied, lowest unoccupied level (ev):    -8.7611   -0.8259

!    total energy              =    -261.22648281 Ry
     estimated scf accuracy    <          3.1E-09 Ry

     total magnetization       =     1.00 Bohr mag/cell
     absolute magnetization    =     1.12 Bohr mag/cell

     convergence has been achieved in   4 iterations

     Using ACE for calculation of exact exchange
     ACE projected onto    17 (nbndproj) and applied to    17 (nbnd) bands

     total energy              =    -261.22652679 Ry
     Harris-Foulkes estimate   =    -261.22652679 Ry
     est. exchange err (dexx)  =       0.00004398 Ry
     - averaged Fock potential =      39.79666560 Ry
     + Fock energy (ACE)       =     -19.90060784 Ry

     EXX: now go back to refine exchange calculation

     total cpu time spent up to now is      264.6 secs

     Self-consistent Calculation

     iteration #  1     ecut=   100.00 Ry     beta= 0.70
     Davidson diagonalization with overlap

---- Real-time Memory Report at c_bands before calling an iterative solver
           335 MiB given to the printing process from OS
             0 MiB allocation reported by mallinfo(arena+hblkhd)
          5860 MiB available memory on the node where the printing process lives
------------------
     ethr =  5.01E-10,  avg # of iterations =  6.5

     total cpu time spent up to now is      270.7 secs

     total energy              =    -261.22655058 Ry
     estimated scf accuracy    <       0.00000461 Ry

     total magnetization       =     1.00 Bohr mag/cell
     absolute magnetization    =     1.11 Bohr mag/cell

     iteration #  2     ecut=   100.00 Ry     beta= 0.70
     Davidson diagonalization with overlap

---- Real-time Memory Report at c_bands before calling an iterative solver
           335 MiB given to the printing process from OS
             0 MiB allocation reported by mallinfo(arena+hblkhd)
          5295 MiB available memory on the node where the printing process lives
------------------
     ethr =  1.40E-08,  avg # of iterations =  2.0

     total cpu time spent up to now is      274.5 secs

     total energy              =    -261.22655120 Ry
     estimated scf accuracy    <       0.00000059 Ry

     total magnetization       =     1.00 Bohr mag/cell
     absolute magnetization    =     1.11 Bohr mag/cell

     iteration #  3     ecut=   100.00 Ry     beta= 0.70
     Davidson diagonalization with overlap

---- Real-time Memory Report at c_bands before calling an iterative solver
           335 MiB given to the printing process from OS
             0 MiB allocation reported by mallinfo(arena+hblkhd)
          5237 MiB available memory on the node where the printing process lives
------------------
     ethr =  1.80E-09,  avg # of iterations =  2.0

     total cpu time spent up to now is      278.4 secs

     total energy              =    -261.22655135 Ry
     estimated scf accuracy    <       0.00000006 Ry

     total magnetization       =     1.00 Bohr mag/cell
     absolute magnetization    =     1.11 Bohr mag/cell

     iteration #  4     ecut=   100.00 Ry     beta= 0.70
     Davidson diagonalization with overlap

---- Real-time Memory Report at c_bands before calling an iterative solver
           335 MiB given to the printing process from OS
             0 MiB allocation reported by mallinfo(arena+hblkhd)
          5180 MiB available memory on the node where the printing process lives
------------------
     ethr =  1.69E-10,  avg # of iterations =  2.0

     Magnetic moment per site  (integrated on atomic sphere of radius R)
     atom   1 (R=0.074)  charge=  8.0162  magn=  0.5566
     atom   2 (R=0.074)  charge=  6.1085  magn= -0.0163
     atom   3 (R=0.074)  charge=  6.1082  magn= -0.0164
     atom   4 (R=0.074)  charge=  6.1082  magn= -0.0164

     total cpu time spent up to now is      282.1 secs

     End of self-consistent calculation

 ------ SPIN UP ------------


          k = 0.0000 0.0000 0.0000 (113801 PWs)   bands (ev):

   -73.8490 -47.1479 -47.1456 -47.0941 -35.7793 -35.2383 -35.2361 -14.6815
   -14.4820 -14.4805 -13.6489 -13.6462 -13.3527 -13.3509 -13.3494 -13.1159
    -8.7795

     occupation numbers 
     1.0000   1.0000   1.0000   1.0000   1.0000   1.0000   1.0000   1.0000
     1.0000   1.0000   1.0000   1.0000   1.0000   1.0000   1.0000   1.0000
     1.0000

 ------ SPIN DOWN ----------


          k = 0.0000 0.0000 0.0000 (113801 PWs)   bands (ev):

   -72.6467 -46.2596 -46.2542 -44.8488 -35.8308 -35.2494 -35.2471 -14.4937
   -14.4585 -14.4576 -13.6944 -13.6917 -13.4053 -13.3917 -13.3901 -13.1699
    -0.8256

     occupation numbers 
     1.0000   1.0000   1.0000   1.0000   1.0000   1.0000   1.0000   1.0000
     1.0000   1.0000   1.0000   1.0000   1.0000   1.0000   1.0000   1.0000
     0.0000

     highest occupied, lowest unoccupied level (ev):    -8.7795   -0.8256

!    total energy              =    -261.22655136 Ry
     estimated scf accuracy    <          6.9E-10 Ry

     total magnetization       =     1.00 Bohr mag/cell
     absolute magnetization    =     1.11 Bohr mag/cell

     convergence has been achieved in   4 iterations

     Using ACE for calculation of exact exchange
     ACE projected onto    17 (nbndproj) and applied to    17 (nbnd) bands

     total energy              =    -261.22656524 Ry
     Harris-Foulkes estimate   =    -261.22656524 Ry
     est. exchange err (dexx)  =       0.00001388 Ry
     - averaged Fock potential =      39.80357245 Ry
     + Fock energy (ACE)       =     -19.90297849 Ry

     EXX: now go back to refine exchange calculation

     total cpu time spent up to now is      284.7 secs

     Self-consistent Calculation

     iteration #  1     ecut=   100.00 Ry     beta= 0.70
     Davidson diagonalization with overlap

---- Real-time Memory Report at c_bands before calling an iterative solver
           335 MiB given to the printing process from OS
             0 MiB allocation reported by mallinfo(arena+hblkhd)
          5865 MiB available memory on the node where the printing process lives
------------------
     ethr =  1.69E-10,  avg # of iterations =  6.5

     total cpu time spent up to now is      290.5 secs

     total energy              =    -261.22657290 Ry
     estimated scf accuracy    <       0.00000144 Ry

     total magnetization       =     1.00 Bohr mag/cell
     absolute magnetization    =     1.11 Bohr mag/cell

     iteration #  2     ecut=   100.00 Ry     beta= 0.70
     Davidson diagonalization with overlap

---- Real-time Memory Report at c_bands before calling an iterative solver
           335 MiB given to the printing process from OS
             0 MiB allocation reported by mallinfo(arena+hblkhd)
          5271 MiB available memory on the node where the printing process lives
------------------
     ethr =  4.37E-09,  avg # of iterations =  2.0

     total cpu time spent up to now is      294.3 secs

     total energy              =    -261.22657307 Ry
     estimated scf accuracy    <       0.00000015 Ry

     total magnetization       =     1.00 Bohr mag/cell
     absolute magnetization    =     1.11 Bohr mag/cell

     iteration #  3     ecut=   100.00 Ry     beta= 0.70
     Davidson diagonalization with overlap

---- Real-time Memory Report at c_bands before calling an iterative solver
           335 MiB given to the printing process from OS
             0 MiB allocation reported by mallinfo(arena+hblkhd)
          5211 MiB available memory on the node where the printing process lives
------------------
     ethr =  4.49E-10,  avg # of iterations =  2.0

     total cpu time spent up to now is      298.1 secs

     total energy              =    -261.22657311 Ry
     estimated scf accuracy    <       0.00000002 Ry

     total magnetization       =     1.00 Bohr mag/cell
     absolute magnetization    =     1.11 Bohr mag/cell

     iteration #  4     ecut=   100.00 Ry     beta= 0.70
     Davidson diagonalization with overlap

---- Real-time Memory Report at c_bands before calling an iterative solver
           335 MiB given to the printing process from OS
             0 MiB allocation reported by mallinfo(arena+hblkhd)
          5150 MiB available memory on the node where the printing process lives
------------------
     ethr =  5.69E-11,  avg # of iterations =  2.0

     Magnetic moment per site  (integrated on atomic sphere of radius R)
     atom   1 (R=0.074)  charge=  8.0167  magn=  0.5579
     atom   2 (R=0.074)  charge=  6.1087  magn= -0.0161
     atom   3 (R=0.074)  charge=  6.1084  magn= -0.0162
     atom   4 (R=0.074)  charge=  6.1084  magn= -0.0162

     total cpu time spent up to now is      301.8 secs

     End of self-consistent calculation

 ------ SPIN UP ------------


          k = 0.0000 0.0000 0.0000 (113801 PWs)   bands (ev):

   -73.8466 -47.1451 -47.1428 -47.0961 -35.7767 -35.2357 -35.2335 -14.6815
   -14.4792 -14.4777 -13.6478 -13.6451 -13.3523 -13.3484 -13.3469 -13.1130
    -8.7888

     occupation numbers 
     1.0000   1.0000   1.0000   1.0000   1.0000   1.0000   1.0000   1.0000
     1.0000   1.0000   1.0000   1.0000   1.0000   1.0000   1.0000   1.0000
     1.0000

 ------ SPIN DOWN ----------


          k = 0.0000 0.0000 0.0000 (113801 PWs)   bands (ev):

   -72.6409 -46.2551 -46.2496 -44.8408 -35.8270 -35.2455 -35.2432 -14.4906
   -14.4549 -14.4540 -13.6913 -13.6887 -13.4026 -13.3885 -13.3869 -13.1663
    -0.8250

     occupation numbers 
     1.0000   1.0000   1.0000   1.0000   1.0000   1.0000   1.0000   1.0000
     1.0000   1.0000   1.0000   1.0000   1.0000   1.0000   1.0000   1.0000
     0.0000

     highest occupied, lowest unoccupied level (ev):    -8.7888   -0.8250

!    total energy              =    -261.22657311 Ry
     estimated scf accuracy    <          3.6E-10 Ry

     total magnetization       =     1.00 Bohr mag/cell
     absolute magnetization    =     1.11 Bohr mag/cell

     convergence has been achieved in   4 iterations

     Using ACE for calculation of exact exchange
     ACE projected onto    17 (nbndproj) and applied to    17 (nbnd) bands

     total energy              =    -261.22657760 Ry
     Harris-Foulkes estimate   =    -261.22657760 Ry
     est. exchange err (dexx)  =       0.00000449 Ry
     - averaged Fock potential =      39.80724892 Ry
     + Fock energy (ACE)       =     -19.90427491 Ry

     EXX: now go back to refine exchange calculation

     total cpu time spent up to now is      304.4 secs

     Self-consistent Calculation

     iteration #  1     ecut=   100.00 Ry     beta= 0.70
     Davidson diagonalization with overlap

---- Real-time Memory Report at c_bands before calling an iterative solver
           335 MiB given to the printing process from OS
             0 MiB allocation reported by mallinfo(arena+hblkhd)
          5840 MiB available memory on the node where the printing process lives
------------------
     ethr =  5.69E-11,  avg # of iterations =  6.5

     total cpu time spent up to now is      310.2 secs

     total energy              =    -261.22658009 Ry
     estimated scf accuracy    <       0.00000047 Ry

     total magnetization       =     1.00 Bohr mag/cell
     absolute magnetization    =     1.11 Bohr mag/cell

     iteration #  2     ecut=   100.00 Ry     beta= 0.70
     Davidson diagonalization with overlap

---- Real-time Memory Report at c_bands before calling an iterative solver
           335 MiB given to the printing process from OS
             0 MiB allocation reported by mallinfo(arena+hblkhd)
          5278 MiB available memory on the node where the printing process lives
------------------
     ethr =  1.41E-09,  avg # of iterations =  2.0

     total cpu time spent up to now is      314.0 secs

     total energy              =    -261.22658015 Ry
     estimated scf accuracy    <       0.00000004 Ry

     total magnetization       =     1.00 Bohr mag/cell
     absolute magnetization    =     1.11 Bohr mag/cell

     iteration #  3     ecut=   100.00 Ry     beta= 0.70
     Davidson diagonalization with overlap

---- Real-time Memory Report at c_bands before calling an iterative solver
           335 MiB given to the printing process from OS
             0 MiB allocation reported by mallinfo(arena+hblkhd)
          5221 MiB available memory on the node where the printing process lives
------------------
     ethr =  1.24E-10,  avg # of iterations =  2.0

     Magnetic moment per site  (integrated on atomic sphere of radius R)
     atom   1 (R=0.074)  charge=  8.0170  magn=  0.5586
     atom   2 (R=0.074)  charge=  6.1088  magn= -0.0160
     atom   3 (R=0.074)  charge=  6.1085  magn= -0.0160
     atom   4 (R=0.074)  charge=  6.1085  magn= -0.0160

     total cpu time spent up to now is      317.8 secs

     End of self-consistent calculation

 ------ SPIN UP ------------


          k = 0.0000 0.0000 0.0000 (113801 PWs)   bands (ev):

   -73.8446 -47.1429 -47.1407 -47.0966 -35.7757 -35.2347 -35.2325 -14.6818
   -14.4779 -14.4764 -13.6475 -13.6448 -13.3525 -13.3473 -13.3458 -13.1117
    -8.7936

     occupation numbers 
     1.0000   1.0000   1.0000   1.0000   1.0000   1.0000   1.0000   1.0000
     1.0000   1.0000   1.0000   1.0000   1.0000   1.0000   1.0000   1.0000
     1.0000

 ------ SPIN DOWN ----------


          k = 0.0000 0.0000 0.0000 (113801 PWs)   bands (ev):

   -72.6370 -46.2520 -46.2466 -44.8356 -35.8251 -35.2435 -35.2412 -14.4890
   -14.4531 -14.4522 -13.6897 -13.6871 -13.4012 -13.3869 -13.3853 -13.1645
    -0.8245

     occupation numbers 
     1.0000   1.0000   1.0000   1.0000   1.0000   1.0000   1.0000   1.0000
     1.0000   1.0000   1.0000   1.0000   1.0000   1.0000   1.0000   1.0000
     0.0000

     highest occupied, lowest unoccupied level (ev):    -8.7936   -0.8245

!    total energy              =    -261.22658016 Ry
     estimated scf accuracy    <          5.8E-09 Ry

     total magnetization       =     1.00 Bohr mag/cell
     absolute magnetization    =     1.11 Bohr mag/cell

     convergence has been achieved in   3 iterations

     Using ACE for calculation of exact exchange
     ACE projected onto    17 (nbndproj) and applied to    17 (nbnd) bands

     total energy              =    -261.22658162 Ry
     Harris-Foulkes estimate   =    -261.22658163 Ry
     est. exchange err (dexx)  =       0.00000147 Ry
     - averaged Fock potential =      39.80931894 Ry
     + Fock energy (ACE)       =     -19.90504550 Ry

     EXX: now go back to refine exchange calculation

     total cpu time spent up to now is      320.3 secs

     Self-consistent Calculation

     iteration #  1     ecut=   100.00 Ry     beta= 0.70
     Davidson diagonalization with overlap

---- Real-time Memory Report at c_bands before calling an iterative solver
           335 MiB given to the printing process from OS
             0 MiB allocation reported by mallinfo(arena+hblkhd)
          5868 MiB available memory on the node where the printing process lives
------------------
     ethr =  1.24E-10,  avg # of iterations =  5.5

     total cpu time spent up to now is      325.5 secs

     total energy              =    -261.22658245 Ry
     estimated scf accuracy    <       0.00000014 Ry

     total magnetization       =     1.00 Bohr mag/cell
     absolute magnetization    =     1.11 Bohr mag/cell

     iteration #  2     ecut=   100.00 Ry     beta= 0.70
     Davidson diagonalization with overlap

---- Real-time Memory Report at c_bands before calling an iterative solver
           335 MiB given to the printing process from OS
             0 MiB allocation reported by mallinfo(arena+hblkhd)
          5296 MiB available memory on the node where the printing process lives
------------------
     ethr =  4.25E-10,  avg # of iterations =  2.0

     Magnetic moment per site  (integrated on atomic sphere of radius R)
     atom   1 (R=0.074)  charge=  8.0172  magn=  0.5590
     atom   2 (R=0.074)  charge=  6.1088  magn= -0.0159
     atom   3 (R=0.074)  charge=  6.1085  magn= -0.0159
     atom   4 (R=0.074)  charge=  6.1085  magn= -0.0159

     total cpu time spent up to now is      328.9 secs

     End of self-consistent calculation

 ------ SPIN UP ------------


          k = 0.0000 0.0000 0.0000 (113801 PWs)   bands (ev):

   -73.8430 -47.1412 -47.1390 -47.0966 -35.7745 -35.2334 -35.2312 -14.6814
   -14.4766 -14.4751 -13.6468 -13.6442 -13.3520 -13.3460 -13.3445 -13.1103
    -8.7960

     occupation numbers 
     1.0000   1.0000   1.0000   1.0000   1.0000   1.0000   1.0000   1.0000
     1.0000   1.0000   1.0000   1.0000   1.0000   1.0000   1.0000   1.0000
     1.0000

 ------ SPIN DOWN ----------


          k = 0.0000 0.0000 0.0000 (113801 PWs)   bands (ev):

   -72.6343 -46.2499 -46.2444 -44.8324 -35.8233 -35.2417 -35.2394 -14.4875
   -14.4515 -14.4506 -13.6881 -13.6855 -13.3997 -13.3854 -13.3838 -13.1628
    -0.8241

     occupation numbers 
     1.0000   1.0000   1.0000   1.0000   1.0000   1.0000   1.0000   1.0000
     1.0000   1.0000   1.0000   1.0000   1.0000   1.0000   1.0000   1.0000
     0.0000

     highest occupied, lowest unoccupied level (ev):    -8.7960   -0.8241

!    total energy              =    -261.22658247 Ry
     estimated scf accuracy    <          7.6E-09 Ry

     total magnetization       =     1.00 Bohr mag/cell
     absolute magnetization    =     1.11 Bohr mag/cell

     convergence has been achieved in   2 iterations

     Using ACE for calculation of exact exchange
     ACE projected onto    17 (nbndproj) and applied to    17 (nbnd) bands

     total energy              =    -261.22658294 Ry
     Harris-Foulkes estimate   =    -261.22658295 Ry
     est. exchange err (dexx)  =       0.00000048 Ry
     - averaged Fock potential =      39.81041063 Ry
     + Fock energy (ACE)       =     -19.90536560 Ry

     EXX: now go back to refine exchange calculation

     total cpu time spent up to now is      331.4 secs

     Self-consistent Calculation

     iteration #  1     ecut=   100.00 Ry     beta= 0.70
     Davidson diagonalization with overlap

---- Real-time Memory Report at c_bands before calling an iterative solver
           335 MiB given to the printing process from OS
             0 MiB allocation reported by mallinfo(arena+hblkhd)
          5867 MiB available memory on the node where the printing process lives
------------------
     ethr =  4.25E-10,  avg # of iterations =  3.0

     total cpu time spent up to now is      335.4 secs

     total energy              =    -261.22658322 Ry
     estimated scf accuracy    <       0.00000006 Ry

     total magnetization       =     1.00 Bohr mag/cell
     absolute magnetization    =     1.11 Bohr mag/cell

     iteration #  2     ecut=   100.00 Ry     beta= 0.70
     Davidson diagonalization with overlap

---- Real-time Memory Report at c_bands before calling an iterative solver
           335 MiB given to the printing process from OS
             0 MiB allocation reported by mallinfo(arena+hblkhd)
          5293 MiB available memory on the node where the printing process lives
------------------
     ethr =  1.73E-10,  avg # of iterations =  2.0

     Magnetic moment per site  (integrated on atomic sphere of radius R)
     atom   1 (R=0.074)  charge=  8.0173  magn=  0.5592
     atom   2 (R=0.074)  charge=  6.1089  magn= -0.0158
     atom   3 (R=0.074)  charge=  6.1085  magn= -0.0159
     atom   4 (R=0.074)  charge=  6.1085  magn= -0.0159

     total cpu time spent up to now is      339.2 secs

     End of self-consistent calculation

 ------ SPIN UP ------------


          k = 0.0000 0.0000 0.0000 (113801 PWs)   bands (ev):

   -73.8422 -47.1404 -47.1383 -47.0967 -35.7741 -35.2330 -35.2308 -14.6814
   -14.4761 -14.4747 -13.6467 -13.6441 -13.3521 -13.3456 -13.3441 -13.1098
    -8.7975

     occupation numbers 
     1.0000   1.0000   1.0000   1.0000   1.0000   1.0000   1.0000   1.0000
     1.0000   1.0000   1.0000   1.0000   1.0000   1.0000   1.0000   1.0000
     1.0000

 ------ SPIN DOWN ----------


          k = 0.0000 0.0000 0.0000 (113801 PWs)   bands (ev):

   -72.6330 -46.2489 -46.2433 -44.8306 -35.8225 -35.2409 -35.2386 -14.4868
   -14.4508 -14.4499 -13.6874 -13.6848 -13.3990 -13.3847 -13.3831 -13.1620
    -0.8239

     occupation numbers 
     1.0000   1.0000   1.0000   1.0000   1.0000   1.0000   1.0000   1.0000
     1.0000   1.0000   1.0000   1.0000   1.0000   1.0000   1.0000   1.0000
     0.0000

     highest occupied, lowest unoccupied level (ev):    -8.7975   -0.8239

!    total energy              =    -261.22658323 Ry
     estimated scf accuracy    <          4.3E-09 Ry

     total magnetization       =     1.00 Bohr mag/cell
     absolute magnetization    =     1.11 Bohr mag/cell

     convergence has been achieved in   2 iterations

     Using ACE for calculation of exact exchange
     ACE projected onto    17 (nbndproj) and applied to    17 (nbnd) bands

     total energy              =    -261.22658339 Ry
     Harris-Foulkes estimate   =    -261.22658339 Ry
     est. exchange err (dexx)  =       0.00000016 Ry
     - averaged Fock potential =      39.81094329 Ry
     + Fock energy (ACE)       =     -19.90557785 Ry

     EXX: now go back to refine exchange calculation

     total cpu time spent up to now is      341.8 secs

     Self-consistent Calculation

     iteration #  1     ecut=   100.00 Ry     beta= 0.70
     Davidson diagonalization with overlap

---- Real-time Memory Report at c_bands before calling an iterative solver
           335 MiB given to the printing process from OS
             0 MiB allocation reported by mallinfo(arena+hblkhd)
          5897 MiB available memory on the node where the printing process lives
------------------
     ethr =  1.73E-10,  avg # of iterations =  3.0

     total cpu time spent up to now is      345.8 secs

     total energy              =    -261.22658348 Ry
     estimated scf accuracy    <       0.00000002 Ry

     total magnetization       =     1.00 Bohr mag/cell
     absolute magnetization    =     1.11 Bohr mag/cell

     iteration #  2     ecut=   100.00 Ry     beta= 0.70
     Davidson diagonalization with overlap

---- Real-time Memory Report at c_bands before calling an iterative solver
           335 MiB given to the printing process from OS
             0 MiB allocation reported by mallinfo(arena+hblkhd)
          5322 MiB available memory on the node where the printing process lives
------------------
     ethr =  7.20E-11,  avg # of iterations =  2.0

     Magnetic moment per site  (integrated on atomic sphere of radius R)
     atom   1 (R=0.074)  charge=  8.0174  magn=  0.5593
     atom   2 (R=0.074)  charge=  6.1089  magn= -0.0158
     atom   3 (R=0.074)  charge=  6.1086  magn= -0.0158
     atom   4 (R=0.074)  charge=  6.1086  magn= -0.0158

     total cpu time spent up to now is      349.8 secs

     End of self-consistent calculation

 ------ SPIN UP ------------


          k = 0.0000 0.0000 0.0000 (113801 PWs)   bands (ev):

   -73.8420 -47.1402 -47.1380 -47.0969 -35.7739 -35.2329 -35.2306 -14.6815
   -14.4759 -14.4744 -13.6467 -13.6441 -13.3522 -13.3454 -13.3438 -13.1095
    -8.7984

     occupation numbers 
     1.0000   1.0000   1.0000   1.0000   1.0000   1.0000   1.0000   1.0000
     1.0000   1.0000   1.0000   1.0000   1.0000   1.0000   1.0000   1.0000
     1.0000

 ------ SPIN DOWN ----------


          k = 0.0000 0.0000 0.0000 (113801 PWs)   bands (ev):

   -72.6324 -46.2485 -46.2429 -44.8298 -35.8221 -35.2404 -35.2382 -14.4865
   -14.4504 -14.4496 -13.6870 -13.6844 -13.3986 -13.3844 -13.3827 -13.1616
    -0.8239

     occupation numbers 
     1.0000   1.0000   1.0000   1.0000   1.0000   1.0000   1.0000   1.0000
     1.0000   1.0000   1.0000   1.0000   1.0000   1.0000   1.0000   1.0000
     0.0000

[...]

 ------ SPIN DOWN ----------


          k = 0.0000 0.0000 0.0000 (113801 PWs)   bands (ev):

   -72.5744 -46.2170 -46.2143 -44.7747 -35.8496 -35.2450 -35.2398 -14.5073
   -14.4850 -14.4847 -13.7182 -13.7161 -13.4215 -13.3968 -13.3967 -13.1839
    -0.7984

     occupation numbers 
     1.0000   1.0000   1.0000   1.0000   1.0000   1.0000   1.0000   1.0000
     1.0000   1.0000   1.0000   1.0000   1.0000   1.0000   1.0000   1.0000
     0.0000

     highest occupied, lowest unoccupied level (ev):    -8.7270   -0.7984

!    total energy              =    -261.22674779 Ry
     estimated scf accuracy    <          9.5E-11 Ry

     total magnetization       =     1.00 Bohr mag/cell
     absolute magnetization    =     1.11 Bohr mag/cell

     convergence has been achieved in   2 iterations

     Using ACE for calculation of exact exchange
     ACE projected onto    17 (nbndproj) and applied to    17 (nbnd) bands

     total energy              =    -261.22674780 Ry
     Harris-Foulkes estimate   =    -261.22674780 Ry
     est. exchange err (dexx)  =          6.0E-09 Ry
     - averaged Fock potential =      39.82425358 Ry
     + Fock energy (ACE)       =     -19.91214396 Ry

     EXX: now go back to refine exchange calculation

     total cpu time spent up to now is     1308.5 secs

     Self-consistent Calculation

     iteration #  1     ecut=   100.00 Ry     beta= 0.70
     Davidson diagonalization with overlap

---- Real-time Memory Report at c_bands before calling an iterative solver
           345 MiB given to the printing process from OS
             0 MiB allocation reported by mallinfo(arena+hblkhd)
          5836 MiB available memory on the node where the printing process lives
------------------
     ethr =  5.38E-12,  avg # of iterations =  3.0

     total cpu time spent up to now is     1312.7 secs

     total energy              =    -261.22674780 Ry
     estimated scf accuracy    <          7.1E-10 Ry

     total magnetization       =     1.00 Bohr mag/cell
     absolute magnetization    =     1.11 Bohr mag/cell

     iteration #  2     ecut=   100.00 Ry     beta= 0.70
     Davidson diagonalization with overlap

---- Real-time Memory Report at c_bands before calling an iterative solver
           345 MiB given to the printing process from OS
             0 MiB allocation reported by mallinfo(arena+hblkhd)
          5263 MiB available memory on the node where the printing process lives
------------------
     ethr =  2.14E-12,  avg # of iterations =  2.0

     Magnetic moment per site  (integrated on atomic sphere of radius R)
     atom   1 (R=0.074)  charge=  8.0209  magn=  0.5560
     atom   2 (R=0.074)  charge=  6.1119  magn= -0.0156
     atom   3 (R=0.074)  charge=  6.1115  magn= -0.0157
     atom   4 (R=0.074)  charge=  6.1115  magn= -0.0157

     total cpu time spent up to now is     1316.6 secs

     End of self-consistent calculation

 ------ SPIN UP ------------


          k = 0.0000 0.0000 0.0000 (113801 PWs)   bands (ev):

   -73.7780 -47.1027 -47.1021 -47.0266 -35.8023 -35.2403 -35.2351 -14.7017
   -14.5111 -14.5104 -13.6787 -13.6766 -13.3759 -13.3591 -13.3590 -13.1322
    -8.7272

     occupation numbers 
     1.0000   1.0000   1.0000   1.0000   1.0000   1.0000   1.0000   1.0000
     1.0000   1.0000   1.0000   1.0000   1.0000   1.0000   1.0000   1.0000
     1.0000

 ------ SPIN DOWN ----------


          k = 0.0000 0.0000 0.0000 (113801 PWs)   bands (ev):

   -72.5743 -46.2169 -46.2142 -44.7745 -35.8495 -35.2449 -35.2397 -14.5072
   -14.4849 -14.4847 -13.7181 -13.7160 -13.4214 -13.3967 -13.3966 -13.1838
    -0.7984

     occupation numbers 
     1.0000   1.0000   1.0000   1.0000   1.0000   1.0000   1.0000   1.0000
     1.0000   1.0000   1.0000   1.0000   1.0000   1.0000   1.0000   1.0000
     0.0000

     highest occupied, lowest unoccupied level (ev):    -8.7272   -0.7984

!    total energy              =    -261.22674780 Ry
     estimated scf accuracy    <          4.9E-11 Ry

     total magnetization       =     1.00 Bohr mag/cell
     absolute magnetization    =     1.11 Bohr mag/cell

     convergence has been achieved in   2 iterations

     Using ACE for calculation of exact exchange
     ACE projected onto    17 (nbndproj) and applied to    17 (nbnd) bands

     total energy              =    -261.22674780 Ry
     Harris-Foulkes estimate   =    -261.22674780 Ry
     est. exchange err (dexx)  =          2.1E-09 Ry
     - averaged Fock potential =      39.82431118 Ry
     + Fock energy (ACE)       =     -19.91216723 Ry

     EXX: now go back to refine exchange calculation

     total cpu time spent up to now is     1319.2 secs

     Self-consistent Calculation

     iteration #  1     ecut=   100.00 Ry     beta= 0.70
     Davidson diagonalization with overlap

---- Real-time Memory Report at c_bands before calling an iterative solver
           345 MiB given to the printing process from OS
             0 MiB allocation reported by mallinfo(arena+hblkhd)
          5813 MiB available memory on the node where the printing process lives
------------------
     ethr =  2.14E-12,  avg # of iterations =  3.0

     total cpu time spent up to now is     1323.3 secs

     total energy              =    -261.22674781 Ry
     estimated scf accuracy    <          2.8E-10 Ry

     total magnetization       =     1.00 Bohr mag/cell
     absolute magnetization    =     1.11 Bohr mag/cell

     iteration #  2     ecut=   100.00 Ry     beta= 0.70
     Davidson diagonalization with overlap

---- Real-time Memory Report at c_bands before calling an iterative solver
           345 MiB given to the printing process from OS
             0 MiB allocation reported by mallinfo(arena+hblkhd)
          5247 MiB available memory on the node where the printing process lives
------------------
     ethr =  8.60E-13,  avg # of iterations =  2.0

     Magnetic moment per site  (integrated on atomic sphere of radius R)
     atom   1 (R=0.074)  charge=  8.0209  magn=  0.5560
     atom   2 (R=0.074)  charge=  6.1119  magn= -0.0156
     atom   3 (R=0.074)  charge=  6.1115  magn= -0.0157
     atom   4 (R=0.074)  charge=  6.1115  magn= -0.0157

     total cpu time spent up to now is     1327.3 secs

     End of self-consistent calculation

 ------ SPIN UP ------------


          k = 0.0000 0.0000 0.0000 (113801 PWs)   bands (ev):

   -73.7779 -47.1027 -47.1021 -47.0266 -35.8023 -35.2403 -35.2351 -14.7017
   -14.5111 -14.5104 -13.6787 -13.6766 -13.3760 -13.3591 -13.3590 -13.1322
    -8.7273

     occupation numbers 
     1.0000   1.0000   1.0000   1.0000   1.0000   1.0000   1.0000   1.0000
     1.0000   1.0000   1.0000   1.0000   1.0000   1.0000   1.0000   1.0000
     1.0000

 ------ SPIN DOWN ----------


          k = 0.0000 0.0000 0.0000 (113801 PWs)   bands (ev):

   -72.5742 -46.2168 -46.2142 -44.7744 -35.8495 -35.2448 -35.2397 -14.5072
   -14.4848 -14.4846 -13.7181 -13.7159 -13.4213 -13.3967 -13.3966 -13.1838
    -0.7984

     occupation numbers 
     1.0000   1.0000   1.0000   1.0000   1.0000   1.0000   1.0000   1.0000
     1.0000   1.0000   1.0000   1.0000   1.0000   1.0000   1.0000   1.0000
     0.0000

     highest occupied, lowest unoccupied level (ev):    -8.7273   -0.7984

!    total energy              =    -261.22674780 Ry
     estimated scf accuracy    <          2.7E-11 Ry

     total magnetization       =     1.00 Bohr mag/cell
     absolute magnetization    =     1.11 Bohr mag/cell

     convergence has been achieved in   2 iterations

     Using ACE for calculation of exact exchange
     ACE projected onto    17 (nbndproj) and applied to    17 (nbnd) bands

     total energy              =    -261.22674781 Ry
     Harris-Foulkes estimate   =    -261.22674781 Ry
     est. exchange err (dexx)  =          7.1E-10 Ry
     - averaged Fock potential =      39.82434841 Ry
     + Fock energy (ACE)       =     -19.91218119 Ry

     EXX: now go back to refine exchange calculation

     total cpu time spent up to now is     1330.0 secs

     Self-consistent Calculation

     iteration #  1     ecut=   100.00 Ry     beta= 0.70
     Davidson diagonalization with overlap

---- Real-time Memory Report at c_bands before calling an iterative solver
           345 MiB given to the printing process from OS
             0 MiB allocation reported by mallinfo(arena+hblkhd)
          5814 MiB available memory on the node where the printing process lives
------------------
     ethr =  8.60E-13,  avg # of iterations =  3.5

     Magnetic moment per site  (integrated on atomic sphere of radius R)
     atom   1 (R=0.074)  charge=  8.0210  magn=  0.5561
     atom   2 (R=0.074)  charge=  6.1119  magn= -0.0156
     atom   3 (R=0.074)  charge=  6.1115  magn= -0.0157
     atom   4 (R=0.074)  charge=  6.1115  magn= -0.0157

     total cpu time spent up to now is     1334.1 secs

     End of self-consistent calculation

 ------ SPIN UP ------------


          k = 0.0000 0.0000 0.0000 (113801 PWs)   bands (ev):

   -73.7780 -47.1027 -47.1021 -47.0267 -35.8023 -35.2403 -35.2351 -14.7018
   -14.5112 -14.5105 -13.6788 -13.6766 -13.3760 -13.3591 -13.3591 -13.1322
    -8.7274

     occupation numbers 
     1.0000   1.0000   1.0000   1.0000   1.0000   1.0000   1.0000   1.0000
     1.0000   1.0000   1.0000   1.0000   1.0000   1.0000   1.0000   1.0000
     1.0000

 ------ SPIN DOWN ----------


          k = 0.0000 0.0000 0.0000 (113801 PWs)   bands (ev):

   -72.5742 -46.2168 -46.2142 -44.7744 -35.8495 -35.2448 -35.2397 -14.5072
   -14.4849 -14.4847 -13.7181 -13.7159 -13.4214 -13.3967 -13.3966 -13.1838
    -0.7984

     occupation numbers 
     1.0000   1.0000   1.0000   1.0000   1.0000   1.0000   1.0000   1.0000
     1.0000   1.0000   1.0000   1.0000   1.0000   1.0000   1.0000   1.0000
     0.0000

     highest occupied, lowest unoccupied level (ev):    -8.7274   -0.7984

!    total energy              =    -261.22674781 Ry
     estimated scf accuracy    <          1.3E-10 Ry

     total magnetization       =     1.00 Bohr mag/cell
     absolute magnetization    =     1.11 Bohr mag/cell

     convergence has been achieved in   1 iterations

     Using ACE for calculation of exact exchange
     ACE projected onto    17 (nbndproj) and applied to    17 (nbnd) bands

     total energy              =    -261.22674781 Ry
     Harris-Foulkes estimate   =    -261.22674781 Ry
     est. exchange err (dexx)  =          3.0E-10 Ry
     - averaged Fock potential =      39.82438272 Ry
     + Fock energy (ACE)       =     -19.91220153 Ry

     EXX: now go back to refine exchange calculation

     total cpu time spent up to now is     1337.1 secs

     Self-consistent Calculation

     iteration #  1     ecut=   100.00 Ry     beta= 0.70
     Davidson diagonalization with overlap

---- Real-time Memory Report at c_bands before calling an iterative solver
           345 MiB given to the printing process from OS
             0 MiB allocation reported by mallinfo(arena+hblkhd)
          5815 MiB available memory on the node where the printing process lives
------------------
     ethr =  8.60E-13,  avg # of iterations =  3.0

     Magnetic moment per site  (integrated on atomic sphere of radius R)
     atom   1 (R=0.074)  charge=  8.0210  magn=  0.5561
     atom   2 (R=0.074)  charge=  6.1119  magn= -0.0156
     atom   3 (R=0.074)  charge=  6.1115  magn= -0.0157
     atom   4 (R=0.074)  charge=  6.1115  magn= -0.0157

     total cpu time spent up to now is     1341.4 secs

     End of self-consistent calculation

 ------ SPIN UP ------------


          k = 0.0000 0.0000 0.0000 (113801 PWs)   bands (ev):

   -73.7779 -47.1026 -47.1020 -47.0266 -35.8023 -35.2403 -35.2350 -14.7017
   -14.5111 -14.5104 -13.6788 -13.6766 -13.3760 -13.3590 -13.3590 -13.1321
    -8.7274

     occupation numbers 
     1.0000   1.0000   1.0000   1.0000   1.0000   1.0000   1.0000   1.0000
     1.0000   1.0000   1.0000   1.0000   1.0000   1.0000   1.0000   1.0000
     1.0000

 ------ SPIN DOWN ----------


          k = 0.0000 0.0000 0.0000 (113801 PWs)   bands (ev):

   -72.5741 -46.2168 -46.2141 -44.7743 -35.8494 -35.2447 -35.2396 -14.5071
   -14.4848 -14.4846 -13.7180 -13.7158 -13.4213 -13.3966 -13.3965 -13.1837
    -0.7984

     occupation numbers 
     1.0000   1.0000   1.0000   1.0000   1.0000   1.0000   1.0000   1.0000
     1.0000   1.0000   1.0000   1.0000   1.0000   1.0000   1.0000   1.0000
     0.0000

     highest occupied, lowest unoccupied level (ev):    -8.7274   -0.7984

!    total energy              =    -261.22674781 Ry
     estimated scf accuracy    <          3.9E-11 Ry

     total magnetization       =     1.00 Bohr mag/cell
     absolute magnetization    =     1.11 Bohr mag/cell

     convergence has been achieved in   1 iterations

     Using ACE for calculation of exact exchange
     ACE projected onto    17 (nbndproj) and applied to    17 (nbnd) bands

!!   total energy              =    -261.22674781 Ry
     Harris-Foulkes estimate   =    -261.22674781 Ry
     est. exchange err (dexx)  =          9.0E-11 Ry
     - averaged Fock potential =      39.82439787 Ry
     + Fock energy (ACE)       =     -19.91219633 Ry

     EXX self-consistency reached

     Forces acting on atoms (cartesian axes, Ry/au):

     atom    1 type  1   force =     0.00000000    0.00036019    0.00000000
     atom    2 type  2   force =     0.00000000   -0.00018496    0.00000000
     atom    3 type  2   force =     0.00031380   -0.00008762    0.00000000
     atom    4 type  2   force =    -0.00031380   -0.00008762    0.00000000
     The non-local contrib.  to forces
     atom    1 type  1   force =     0.00000000   -0.00287950    0.00000000
     atom    2 type  2   force =     0.00000000   -1.50868308    0.00000000
     atom    3 type  2   force =    -1.30831787    0.75674680   -0.00000000
     atom    4 type  2   force =     1.30831787    0.75674680    0.00000000
     The ionic contribution  to forces
     atom    1 type  1   force =    -0.00000000    0.07423132    0.00000000
     atom    2 type  2   force =     0.00000000   18.78781159   -0.00000000
     atom    3 type  2   force =    16.29302572   -9.43102145    0.00000000
     atom    4 type  2   force =   -16.29302572   -9.43102145   -0.00000000
     The local contribution  to forces
     atom    1 type  1   force =    -0.00000000   -0.07148150    0.00000000
     atom    2 type  2   force =    -0.00000000  -17.27980417    0.00000000
     atom    3 type  2   force =   -14.98439485    8.67369763    0.00000000
     atom    4 type  2   force =    14.98439485    8.67369763    0.00000000
     The core correction contribution to forces
     atom    1 type  1   force =     0.00000000    0.00000000    0.00000000
     atom    2 type  2   force =     0.00000000    0.00000000    0.00000000
     atom    3 type  2   force =     0.00000000    0.00000000    0.00000000
     atom    4 type  2   force =     0.00000000    0.00000000    0.00000000
     The Hubbard contrib.    to forces
     atom    1 type  1   force =     0.00000000    0.00000000    0.00000000
     atom    2 type  2   force =     0.00000000    0.00000000    0.00000000
     atom    3 type  2   force =     0.00000000    0.00000000    0.00000000
     atom    4 type  2   force =     0.00000000    0.00000000    0.00000000
     The SCF correction term to forces
     atom    1 type  1   force =     0.00000000    0.00000006   -0.00000000
     atom    2 type  2   force =    -0.00000000    0.00000089   -0.00000000
     atom    3 type  2   force =     0.00000080   -0.00000041   -0.00000000
     atom    4 type  2   force =    -0.00000080   -0.00000041    0.00000000

     Total force =     0.000613     Total SCF correction =     0.000002
     Energy error            =      2.4E-05 Ry
     Gradient error          =      3.6E-04 Ry/Bohr

     bfgs converged in   3 scf cycles and   2 bfgs steps
     (criteria: energy <  1.0E-04 Ry, force <  1.0E-03 Ry/Bohr)

     End of BFGS Geometry Optimization

     Final energy             =    -261.2267478065 Ry

     File ./scratch/tif3.bfgs deleted, as requested
Begin final coordinates

ATOMIC_POSITIONS (crystal)
Ti            0.0000000000       -0.0000101654        0.0000000000
F             0.0000000000        0.1780046750        0.0000000000
F             0.1541091931       -0.0889972549        0.0000000000
F            -0.1541091931       -0.0889972549        0.0000000000
End final coordinates



     Writing all to output data dir ./scratch/tif3.save/

     init_run     :      3.08s CPU      3.41s WALL (       1 calls)
     electrons    :   1167.95s CPU   1215.34s WALL (      46 calls)
     update_pot   :      1.95s CPU      2.11s WALL (       2 calls)
     forces       :      0.84s CPU      0.87s WALL (       3 calls)

     Called by init_run:
     aceinit0     :      0.00s CPU      0.00s WALL (       1 calls)
     wfcinit      :      1.93s CPU      2.05s WALL (       1 calls)
     wfcinit:atom :      0.03s CPU      0.03s WALL (       2 calls)
     wfcinit:wfcr :      1.83s CPU      1.95s WALL (       2 calls)
     potinit      :      0.70s CPU      0.87s WALL (       1 calls)
     hinit0       :      0.13s CPU      0.16s WALL (       1 calls)

     Called by electrons:
     c_bands      :    817.15s CPU    845.31s WALL (     247 calls)
     sum_band     :    137.44s CPU    143.98s WALL (     247 calls)
     v_of_rho     :    173.07s CPU    178.66s WALL (     253 calls)
     v_h          :      9.20s CPU      9.60s WALL (     253 calls)
     v_xc         :    163.86s CPU    169.06s WALL (     253 calls)
     mix_rho      :     36.29s CPU     39.36s WALL (     247 calls)

     Called by c_bands:
     init_us_2    :      2.18s CPU      2.19s WALL (     996 calls)
     init_us_2:cp :      2.17s CPU      2.18s WALL (     996 calls)
     cegterg      :    812.12s CPU    840.22s WALL (     494 calls)

     Called by sum_band:
     sum_band:wei :      0.00s CPU      0.00s WALL (     247 calls)
     sum_band:loo :    105.93s CPU    109.23s WALL (     247 calls)
     sum_band:buf :      1.55s CPU      1.56s WALL (     494 calls)
     sum_band:ini :      1.12s CPU      1.13s WALL (     494 calls)

     Called by *egterg:
     cdiaghg      :      0.97s CPU      0.97s WALL (    2432 calls)
     cegterg:over :     41.53s CPU     41.65s WALL (    2028 calls)
     cegterg:upda :     21.77s CPU     21.89s WALL (    2028 calls)
     cegterg:last :     35.56s CPU     35.59s WALL (    1478 calls)
     h_psi        :    693.86s CPU    721.62s WALL (    2524 calls)
     g_psi        :      1.89s CPU      1.91s WALL (    2028 calls)

     Called by h_psi:
     h_psi:calbec :     10.83s CPU     10.97s WALL (    2524 calls)
     vloc_psi     :    639.86s CPU    666.91s WALL (    2524 calls)
     add_vuspsi   :      6.15s CPU      6.19s WALL (    2524 calls)

     General routines
     calbec       :     29.24s CPU     29.44s WALL (    4967 calls)
     fft          :    109.44s CPU    115.75s WALL (    4708 calls)
     ffts         :     11.33s CPU     12.00s WALL (     494 calls)
     fftw         :    606.23s CPU    633.35s WALL (   66520 calls)
     fftc         :     56.76s CPU     61.42s WALL (   53176 calls)
     fftcw        :      4.40s CPU      5.45s WALL (    4692 calls)

     Parallel routines

     EXX routines
     exx_grid     :      0.00s CPU      0.00s WALL (       1 calls)
     exxinit      :      6.73s CPU      8.31s WALL (      46 calls)
     vexx         :     95.36s CPU    104.01s WALL (      92 calls)
     matcalc      :     18.33s CPU     18.38s WALL (    2419 calls)
     aceupdate    :      0.59s CPU      0.59s WALL (      92 calls)
     vexxace      :     36.53s CPU     36.77s WALL (    2149 calls)
     aceinit      :     96.98s CPU    105.65s WALL (      92 calls)

     PWSCF        :  21m25.89s CPU  22m24.53s WALL


   This run was terminated on:  15:45:10  21Nov2024            

=------------------------------------------------------------------------------=
   JOB DONE.
=------------------------------------------------------------------------------=
