
     Program PWSCF v.7.2 starts on 19Jun2024 at 15: 4:54 

     This program is part of the open-source Quantum ESPRESSO suite
     for quantum simulation of materials; please cite
         "P. Giannozzi et al., J. Phys.:Condens. Matter 21 395502 (2009);
         "P. Giannozzi et al., J. Phys.:Condens. Matter 29 465901 (2017);
         "P. Giannozzi et al., J. Chem. Phys. 152 154105 (2020);
          URL http://www.quantum-espresso.org", 
     in publications or presentations arising from this work. More details at
     http://www.quantum-espresso.org/quote

     Parallel version (MPI), running on     6 processors

     MPI processes distributed on     1 nodes
     6200 MiB available memory on the printing compute node when the environment starts

     Waiting for input...
     Reading input from standard input

     Current dimensions of program PWSCF are:
     Max number of different atomic species (ntypx) = 10
     Max number of k-points (npk) =  40000
     Max angular momentum in pseudopotentials (lmaxx) =  4

     File ./scratch/tif3.update deleted, as requested

     File ./scratch/tif3.bfgs deleted, as requested
     Message from routine setup:
     the system is metallic, specify occupations
     Message from routine setup:
     using ibrav=0 with symmetry is DISCOURAGED, use correct ibrav instead

     R & G space division:  proc/nbgrp/npool/nimage =       6
     Subspace diagonalization in iterative solution of the eigenvalue problem:
     a serial algorithm will be used


     Parallelization info
     --------------------
     sticks:   dense  smooth     PW     G-vecs:    dense   smooth      PW
     Min        4263    4263   1064               512913   512913   64096
     Max        4264    4264   1065               512914   512914   64099
     Sum       25581   25581   6385              3077481  3077481  384587

     Using Slab Decomposition



     bravais-lattice index     =            0
     lattice parameter (alat)  =      28.3459  a.u.
     unit-cell volume          =   22775.6289 (a.u.)^3
     number of atoms/cell      =            4
     number of atomic types    =            2
     number of electrons       =        33.00 (up:  17.00, down:  16.00)
     number of Kohn-Sham states=           17
     kinetic-energy cutoff     =     100.0000  Ry
     charge density cutoff     =     400.0000  Ry
     scf convergence threshold =      1.0E-08
     mixing beta               =       0.7000
     number of iterations used =            8  plain     mixing
     energy convergence thresh.=      1.0E-04
     force convergence thresh. =      1.0E-03
     Exchange-correlation=  SLA  PW   PBX  PBC
                           (   1   4   3   4   0   0   0)
     nstep                     =           50


     celldm(1)=  28.345892  celldm(2)=   0.000000  celldm(3)=   0.000000
     celldm(4)=   0.000000  celldm(5)=   0.000000  celldm(6)=   0.000000

     crystal axes: (cart. coord. in units of alat)
               a(1) = (   1.000000   0.000000   0.000000 )  
               a(2) = (   0.000000   1.000000   0.000000 )  
               a(3) = (   0.000000   0.000000   1.000000 )  

     reciprocal axes: (cart. coord. in units 2 pi/alat)
               b(1) = (  1.000000  0.000000  0.000000 )  
               b(2) = (  0.000000  1.000000  0.000000 )  
               b(3) = (  0.000000  0.000000  1.000000 )  


     PseudoPot. # 1 for Ti read from file:
     ./pseudo/Ti.pbe-tm-gipaw-semi-dc.UPF
     MD5 check sum: 0d5e5be629ad81857689d77ece9f3b93
     Pseudo is Norm-conserving, Zval = 12.0
     Generated by new atomic code, or converted to UPF format
     Using radial grid of 1571 points,  2 beta functions with: 
                l(1) =   0
                l(2) =   1

     PseudoPot. # 2 for F  read from file:
     ./pseudo/F.pbe-tm-new-gipaw-dc.UPF
     MD5 check sum: ce5ef009770ae7616321e2944b9cf54d
     Pseudo is Norm-conserving, Zval =  7.0
     Generated by new atomic code, or converted to UPF format
     Using radial grid of 1481 points,  1 beta functions with: 
                l(1) =   0

     atomic species   valence    mass     pseudopotential
        Ti            12.00    47.86700     Ti( 1.00)
        F              7.00    18.99800     F ( 1.00)

     Starting magnetic structure 
     atomic species   magnetization
        Ti           0.000
        F            0.000

      4 Sym. Ops. (no inversion) found


                                    s                        frac. trans.

      isym =  1     identity                                     

 cryst.   s( 1) = (     1          0          0      )
                  (     0          1          0      )
                  (     0          0          1      )

 cart.    s( 1) = (  1.0000000  0.0000000  0.0000000 )
                  (  0.0000000  1.0000000  0.0000000 )
                  (  0.0000000  0.0000000  1.0000000 )


      isym =  2     180 deg rotation - cart. axis [0,1,0]        

 cryst.   s( 2) = (    -1          0          0      )
                  (     0          1          0      )
                  (     0          0         -1      )

 cart.    s( 2) = ( -1.0000000  0.0000000  0.0000000 )
                  (  0.0000000  1.0000000  0.0000000 )
                  (  0.0000000  0.0000000 -1.0000000 )


      isym =  3     inv. 180 deg rotation - cart. axis [0,0,1]   

 cryst.   s( 3) = (     1          0          0      )
                  (     0          1          0      )
                  (     0          0         -1      )

 cart.    s( 3) = (  1.0000000  0.0000000  0.0000000 )
                  (  0.0000000  1.0000000  0.0000000 )
                  (  0.0000000  0.0000000 -1.0000000 )


      isym =  4     inv. 180 deg rotation - cart. axis [1,0,0]   

 cryst.   s( 4) = (    -1          0          0      )
                  (     0          1          0      )
                  (     0          0          1      )

 cart.    s( 4) = ( -1.0000000  0.0000000  0.0000000 )
                  (  0.0000000  1.0000000  0.0000000 )
                  (  0.0000000  0.0000000  1.0000000 )


   Cartesian axes

     site n.     atom                  positions (alat units)
         1           Ti  tau(   1) = (   0.0000000   0.0000000   0.0000000  )
         2           F   tau(   2) = (   0.0000000   0.1191579   0.0000000  )
         3           F   tau(   3) = (   0.1031937  -0.0595789   0.0000000  )
         4           F   tau(   4) = (  -0.1031937  -0.0595789   0.0000000  )

   Crystallographic axes

     site n.     atom                  positions (cryst. coord.)
         1           Ti  tau(   1) = (  0.0000000  0.0000000  0.0000000  )
         2           F   tau(   2) = (  0.0000000  0.1191579  0.0000000  )
         3           F   tau(   3) = (  0.1031937 -0.0595789  0.0000000  )
         4           F   tau(   4) = ( -0.1031937 -0.0595789  0.0000000  )

     number of k points=     1
                       cart. coord. in units 2pi/alat
        k(    1) = (   0.0000000   0.0000000   0.0000000), wk =   1.0000000

                       cryst. coord.
        k(    1) = (   0.0000000   0.0000000   0.0000000), wk =   1.0000000

     Dense  grid:  3077481 G-vectors     FFT dimensions: ( 192, 192, 192)

     Dynamical RAM for                 wfc:      16.63 MB

     Dynamical RAM for     wfc (w. buffer):      49.88 MB

     Dynamical RAM for           str. fact:      15.65 MB

     Dynamical RAM for           local pot:       0.00 MB

     Dynamical RAM for          nlocal pot:       6.85 MB

     Dynamical RAM for                qrad:       0.28 MB

     Dynamical RAM for          rho,v,vnew:     100.96 MB

     Dynamical RAM for               rhoin:      33.65 MB

     Dynamical RAM for            rho*nmix:     250.45 MB

     Dynamical RAM for           G-vectors:      33.26 MB

     Dynamical RAM for          h,s,v(r/c):       0.05 MB

     Dynamical RAM for          <psi|beta>:       0.00 MB

     Dynamical RAM for                 psi:      33.26 MB

     Dynamical RAM for                hpsi:      33.26 MB

     Dynamical RAM for      wfcinit/wfcrot:      82.20 MB

     Estimated static dynamical RAM per process >     318.01 MB

     Estimated max dynamical RAM per process >     650.66 MB

     Estimated total dynamical RAM >       3.81 GB
     Generating pointlists ...
     new r_m :   0.0492 (alat units)  1.3933 (a.u.) for type    1
     new r_m :   0.0492 (alat units)  1.3933 (a.u.) for type    2

     Initial potential from superposition of free atoms

     starting charge      31.0000, renormalised to      33.0000

     negative rho (up, down):  9.688E-04 9.688E-04
     Starting wfcs are   42 randomized atomic wfcs

     total cpu time spent up to now is       14.9 secs

     Self-consistent Calculation

     iteration #  1     ecut=   100.00 Ry     beta= 0.70
     Davidson diagonalization with overlap

---- Real-time Memory Report at c_bands before calling an iterative solver
           480 MiB given to the printing process from OS
             0 MiB allocation reported by mallinfo(arena+hblkhd)
          4267 MiB available memory on the node where the printing process lives
------------------
     ethr =  1.00E-04,  avg # of iterations =  8.0

     negative rho (up, down):  7.316E-06 2.351E-04

     total cpu time spent up to now is       37.7 secs

     total energy              =    -260.43086877 Ry
     estimated scf accuracy    <       1.90798122 Ry

     total magnetization       =     1.00 Bohr mag/cell
     absolute magnetization    =     1.00 Bohr mag/cell

     iteration #  2     ecut=   100.00 Ry     beta= 0.70
     Davidson diagonalization with overlap

---- Real-time Memory Report at c_bands before calling an iterative solver
           664 MiB given to the printing process from OS
             0 MiB allocation reported by mallinfo(arena+hblkhd)
          2355 MiB available memory on the node where the printing process lives
------------------
     ethr =  5.78E-03,  avg # of iterations =  6.0

     negative rho (up, down):  5.339E-06 1.755E-04

     total cpu time spent up to now is       59.6 secs

     total energy              =    -259.61642461 Ry
     estimated scf accuracy    <       7.70749537 Ry

     total magnetization       =     1.00 Bohr mag/cell
     absolute magnetization    =     1.03 Bohr mag/cell

     iteration #  3     ecut=   100.00 Ry     beta= 0.70
     Davidson diagonalization with overlap

---- Real-time Memory Report at c_bands before calling an iterative solver
           695 MiB given to the printing process from OS
             0 MiB allocation reported by mallinfo(arena+hblkhd)
          2150 MiB available memory on the node where the printing process lives
------------------
     ethr =  5.78E-03,  avg # of iterations =  6.0

     negative rho (up, down):  2.859E-06 8.614E-05

     total cpu time spent up to now is       80.1 secs

     total energy              =    -261.29856262 Ry
     estimated scf accuracy    <       0.62860512 Ry

     total magnetization       =     1.00 Bohr mag/cell
     absolute magnetization    =     1.08 Bohr mag/cell

     iteration #  4     ecut=   100.00 Ry     beta= 0.70
     Davidson diagonalization with overlap

---- Real-time Memory Report at c_bands before calling an iterative solver
           727 MiB given to the printing process from OS
             0 MiB allocation reported by mallinfo(arena+hblkhd)
          1969 MiB available memory on the node where the printing process lives
------------------
     ethr =  1.90E-03,  avg # of iterations =  2.0

     negative rho (up, down):  2.667E-07 3.385E-06

     total cpu time spent up to now is       95.4 secs

     total energy              =    -261.29693602 Ry
     estimated scf accuracy    <       0.16975062 Ry

     total magnetization       =     1.00 Bohr mag/cell
     absolute magnetization    =     1.06 Bohr mag/cell

     iteration #  5     ecut=   100.00 Ry     beta= 0.70
     Davidson diagonalization with overlap

---- Real-time Memory Report at c_bands before calling an iterative solver
           758 MiB given to the printing process from OS
             0 MiB allocation reported by mallinfo(arena+hblkhd)
          1775 MiB available memory on the node where the printing process lives
------------------
     ethr =  5.14E-04,  avg # of iterations =  5.0

     negative rho (up, down):  1.468E-07 3.885E-06

     total cpu time spent up to now is      112.0 secs

     total energy              =    -261.33509125 Ry
     estimated scf accuracy    <       0.00268827 Ry

     total magnetization       =     1.00 Bohr mag/cell
     absolute magnetization    =     1.06 Bohr mag/cell

     iteration #  6     ecut=   100.00 Ry     beta= 0.70
     Davidson diagonalization with overlap

---- Real-time Memory Report at c_bands before calling an iterative solver
           789 MiB given to the printing process from OS
             0 MiB allocation reported by mallinfo(arena+hblkhd)
          1580 MiB available memory on the node where the printing process lives
------------------
     ethr =  8.15E-06,  avg # of iterations =  5.0

     negative rho (up, down):  4.227E-08 2.183E-06

     total cpu time spent up to now is      131.3 secs

     total energy              =    -261.33925251 Ry
     estimated scf accuracy    <       0.00099684 Ry

     total magnetization       =     1.00 Bohr mag/cell
     absolute magnetization    =     1.05 Bohr mag/cell

     iteration #  7     ecut=   100.00 Ry     beta= 0.70
     Davidson diagonalization with overlap

---- Real-time Memory Report at c_bands before calling an iterative solver
           821 MiB given to the printing process from OS
             0 MiB allocation reported by mallinfo(arena+hblkhd)
          1385 MiB available memory on the node where the printing process lives
------------------
     ethr =  3.02E-06,  avg # of iterations =  4.5

     negative rho (up, down):  3.667E-09 1.432E-07

     total cpu time spent up to now is      147.5 secs

     total energy              =    -261.33939991 Ry
     estimated scf accuracy    <       0.00026873 Ry

     total magnetization       =     1.00 Bohr mag/cell
     absolute magnetization    =     1.08 Bohr mag/cell

     iteration #  8     ecut=   100.00 Ry     beta= 0.70
     Davidson diagonalization with overlap

---- Real-time Memory Report at c_bands before calling an iterative solver
           852 MiB given to the printing process from OS
             0 MiB allocation reported by mallinfo(arena+hblkhd)
          1206 MiB available memory on the node where the printing process lives
------------------
     ethr =  8.14E-07,  avg # of iterations =  3.5

     negative rho (up, down):  7.247E-08 7.309E-10

     total cpu time spent up to now is      164.8 secs

     total energy              =    -261.33946813 Ry
     estimated scf accuracy    <       0.00008161 Ry

     total magnetization       =     1.00 Bohr mag/cell
     absolute magnetization    =     1.10 Bohr mag/cell

     iteration #  9     ecut=   100.00 Ry     beta= 0.70
     Davidson diagonalization with overlap

---- Real-time Memory Report at c_bands before calling an iterative solver
           883 MiB given to the printing process from OS
             0 MiB allocation reported by mallinfo(arena+hblkhd)
          1023 MiB available memory on the node where the printing process lives
------------------
     ethr =  2.47E-07,  avg # of iterations =  4.5

     total cpu time spent up to now is      181.6 secs

     total energy              =    -261.33948425 Ry
     estimated scf accuracy    <       0.00005556 Ry

     total magnetization       =     1.00 Bohr mag/cell
     absolute magnetization    =     1.10 Bohr mag/cell

     iteration # 10     ecut=   100.00 Ry     beta= 0.70
     Davidson diagonalization with overlap

---- Real-time Memory Report at c_bands before calling an iterative solver
           914 MiB given to the printing process from OS
             0 MiB allocation reported by mallinfo(arena+hblkhd)
           874 MiB available memory on the node where the printing process lives
------------------
     ethr =  1.68E-07,  avg # of iterations =  3.0

     negative rho (up, down):  8.017E-10 1.789E-08

     total cpu time spent up to now is      196.9 secs

     total energy              =    -261.33949006 Ry
     estimated scf accuracy    <       0.00001175 Ry

     total magnetization       =     1.00 Bohr mag/cell
     absolute magnetization    =     1.11 Bohr mag/cell

     iteration # 11     ecut=   100.00 Ry     beta= 0.70
     Davidson diagonalization with overlap

---- Real-time Memory Report at c_bands before calling an iterative solver
           914 MiB given to the printing process from OS
             0 MiB allocation reported by mallinfo(arena+hblkhd)
           860 MiB available memory on the node where the printing process lives
------------------
     ethr =  3.56E-08,  avg # of iterations =  5.0

     total cpu time spent up to now is      212.3 secs

     total energy              =    -261.33949198 Ry
     estimated scf accuracy    <       0.00000179 Ry

     total magnetization       =     1.00 Bohr mag/cell
     absolute magnetization    =     1.11 Bohr mag/cell

     iteration # 12     ecut=   100.00 Ry     beta= 0.70
     Davidson diagonalization with overlap

---- Real-time Memory Report at c_bands before calling an iterative solver
           914 MiB given to the printing process from OS
             0 MiB allocation reported by mallinfo(arena+hblkhd)
           851 MiB available memory on the node where the printing process lives
------------------
     ethr =  5.44E-09,  avg # of iterations =  6.0

     negative rho (up, down):  1.914E-07 2.196E-08

     total cpu time spent up to now is      232.0 secs

     total energy              =    -261.33949323 Ry
     estimated scf accuracy    <       0.00000060 Ry

     total magnetization       =     1.00 Bohr mag/cell
     absolute magnetization    =     1.11 Bohr mag/cell

     iteration # 13     ecut=   100.00 Ry     beta= 0.70
     Davidson diagonalization with overlap

---- Real-time Memory Report at c_bands before calling an iterative solver
           914 MiB given to the printing process from OS
             0 MiB allocation reported by mallinfo(arena+hblkhd)
           853 MiB available memory on the node where the printing process lives
------------------
     ethr =  1.81E-09,  avg # of iterations =  3.5

     total cpu time spent up to now is      247.2 secs

     total energy              =    -261.33949312 Ry
     estimated scf accuracy    <       0.00000045 Ry

     total magnetization       =     1.00 Bohr mag/cell
     absolute magnetization    =     1.11 Bohr mag/cell

     iteration # 14     ecut=   100.00 Ry     beta= 0.70
     Davidson diagonalization with overlap

---- Real-time Memory Report at c_bands before calling an iterative solver
           914 MiB given to the printing process from OS
             0 MiB allocation reported by mallinfo(arena+hblkhd)
           849 MiB available memory on the node where the printing process lives
------------------
     ethr =  1.37E-09,  avg # of iterations =  4.5

     total cpu time spent up to now is      263.3 secs

     total energy              =    -261.33949319 Ry
     estimated scf accuracy    <       0.00000003 Ry

     total magnetization       =     1.00 Bohr mag/cell
     absolute magnetization    =     1.11 Bohr mag/cell

     iteration # 15     ecut=   100.00 Ry     beta= 0.70
     Davidson diagonalization with overlap

---- Real-time Memory Report at c_bands before calling an iterative solver
           914 MiB given to the printing process from OS
             0 MiB allocation reported by mallinfo(arena+hblkhd)
           852 MiB available memory on the node where the printing process lives
------------------
     ethr =  7.83E-11,  avg # of iterations =  5.5

     total cpu time spent up to now is      282.3 secs

     total energy              =    -261.33949320 Ry
     estimated scf accuracy    <       0.00000004 Ry

     total magnetization       =     1.00 Bohr mag/cell
     absolute magnetization    =     1.11 Bohr mag/cell

     iteration # 16     ecut=   100.00 Ry     beta= 0.70
     Davidson diagonalization with overlap

---- Real-time Memory Report at c_bands before calling an iterative solver
           914 MiB given to the printing process from OS
             0 MiB allocation reported by mallinfo(arena+hblkhd)
           854 MiB available memory on the node where the printing process lives
------------------
     ethr =  7.83E-11,  avg # of iterations =  5.0

     Magnetic moment per site  (integrated on atomic sphere of radius R)
     atom   1 (R=0.049)  charge=  8.0999  magn=  0.4832
     atom   2 (R=0.049)  charge=  6.0360  magn= -0.0169
     atom   3 (R=0.049)  charge=  6.0354  magn= -0.0169
     atom   4 (R=0.049)  charge=  6.0354  magn= -0.0169

     total cpu time spent up to now is      298.5 secs

     End of self-consistent calculation

 ------ SPIN UP ------------


          k = 0.0000 0.0000 0.0000 (384587 PWs)   bands (ev):

   -63.4462 -40.0067 -40.0066 -39.6533 -28.8495 -28.4151 -28.4140 -11.0750
   -11.0747 -11.0714 -10.3642 -10.3635 -10.0461  -9.9702  -9.9699  -9.7454
    -5.2491

     occupation numbers 
     1.0000   1.0000   1.0000   1.0000   1.0000   1.0000   1.0000   1.0000
     1.0000   1.0000   1.0000   1.0000   1.0000   1.0000   1.0000   1.0000
     1.0000

 ------ SPIN DOWN ----------


          k = 0.0000 0.0000 0.0000 (384587 PWs)   bands (ev):

   -62.7166 -39.4699 -39.4698 -38.5695 -28.8724 -28.4197 -28.4185 -11.0253
   -11.0251 -10.9988 -10.3567 -10.3559 -10.0551  -9.9829  -9.9827  -9.7686
    -3.4303

     occupation numbers 
     1.0000   1.0000   1.0000   1.0000   1.0000   1.0000   1.0000   1.0000
     1.0000   1.0000   1.0000   1.0000   1.0000   1.0000   1.0000   1.0000
     0.0000

     highest occupied, lowest unoccupied level (ev):    -5.2491   -3.4303

!    total energy              =    -261.33949321 Ry
     estimated scf accuracy    <          1.3E-09 Ry

     The total energy is the sum of the following terms:
     one-electron contribution =    -623.42143233 Ry
     hartree contribution      =     312.47178678 Ry
     xc contribution           =     -42.33700163 Ry
     ewald contribution        =      91.94715396 Ry

     total magnetization       =     1.00 Bohr mag/cell
     absolute magnetization    =     1.11 Bohr mag/cell

     convergence has been achieved in  16 iterations

     Forces acting on atoms (cartesian axes, Ry/au):

     atom    1 type  1   force =     0.00000000   -0.00006681    0.00000000
     atom    2 type  2   force =     0.00000000    0.00848270    0.00000000
     atom    3 type  2   force =     0.00662324   -0.00420794    0.00000000
     atom    4 type  2   force =    -0.00662324   -0.00420794    0.00000000
     The non-local contrib.  to forces
     atom    1 type  1   force =     0.00000000   -0.00017053    0.00000000
     atom    2 type  2   force =     0.00000000   -1.34016228    0.00000000
     atom    3 type  2   force =    -1.16199222    0.67049098   -0.00000000
     atom    4 type  2   force =     1.16199222    0.67049098    0.00000000
     The ionic contribution  to forces
     atom    1 type  1   force =     0.00000000    0.00830618   -0.00000000
     atom    2 type  2   force =     0.00000000   19.38558173    0.00000000
     atom    3 type  2   force =    16.79062213   -9.69694395    0.00000000
     atom    4 type  2   force =   -16.79062213   -9.69694395   -0.00000000
     The local contribution  to forces
     atom    1 type  1   force =    -0.00000000   -0.00829296    0.00000000
     atom    2 type  2   force =    -0.00000000  -18.03700844    0.00000000
     atom    3 type  2   force =   -15.62203194    9.02221532    0.00000000
     atom    4 type  2   force =    15.62203194    9.02221532    0.00000000
     The core correction contribution to forces
     atom    1 type  1   force =     0.00000000    0.00000000    0.00000000
     atom    2 type  2   force =     0.00000000    0.00000000    0.00000000
     atom    3 type  2   force =     0.00000000    0.00000000    0.00000000
     atom    4 type  2   force =     0.00000000    0.00000000    0.00000000
     The Hubbard contrib.    to forces
     atom    1 type  1   force =     0.00000000    0.00000000    0.00000000
     atom    2 type  2   force =     0.00000000    0.00000000    0.00000000
     atom    3 type  2   force =     0.00000000    0.00000000    0.00000000
     atom    4 type  2   force =     0.00000000    0.00000000    0.00000000
     The SCF correction term to forces
     atom    1 type  1   force =     0.00000000    0.00005466   -0.00000000
     atom    2 type  2   force =     0.00000000    0.00003586   -0.00000000
     atom    3 type  2   force =     0.00002528   -0.00000614   -0.00000000
     atom    4 type  2   force =    -0.00002528   -0.00000614   -0.00000000

     Total force =     0.013968     Total SCF correction =     0.000075

     BFGS Geometry Optimization
     Energy error            =      0.0E+00 Ry
     Gradient error          =      8.5E-03 Ry/Bohr

     number of scf cycles    =   1
     number of bfgs steps    =   0

     energy             new  =    -261.3394932074 Ry

     new trust radius        =       0.0084827030 bohr
     new conv_thr            =       0.0000000100 Ry


ATOMIC_POSITIONS (crystal)
Ti            0.0000000000       -0.0000023571        0.0000000000
F             0.0000000000        0.1194571236        0.0000000000
F             0.1034273913       -0.0597273832        0.0000000000
F            -0.1034273913       -0.0597273832        0.0000000000



     Writing config-only to output data dir ./scratch/tif3.save/
     NEW-OLD atomic charge density approx. for the potential

     negative rho (up, down):  6.302E-05 6.302E-05
     Generating pointlists ...

     total cpu time spent up to now is      303.6 secs

     Self-consistent Calculation

     iteration #  1     ecut=   100.00 Ry     beta= 0.70
     Davidson diagonalization with overlap

---- Real-time Memory Report at c_bands before calling an iterative solver
           933 MiB given to the printing process from OS
             0 MiB allocation reported by mallinfo(arena+hblkhd)
          4195 MiB available memory on the node where the printing process lives
------------------
     ethr =  1.00E-06,  avg # of iterations =  5.0

     Threshold (ethr) on eigenvalues was too large:
     Diagonalizing with lowered threshold

     Davidson diagonalization with overlap

---- Real-time Memory Report at c_bands before calling an iterative solver
           933 MiB given to the printing process from OS
             0 MiB allocation reported by mallinfo(arena+hblkhd)
          3979 MiB available memory on the node where the printing process lives
------------------
     ethr =  8.67E-08,  avg # of iterations =  4.0

     negative rho (up, down):  1.386E-05 2.215E-05

     total cpu time spent up to now is      337.4 secs

     total energy              =    -261.33960019 Ry
     estimated scf accuracy    <       0.00005669 Ry

     total magnetization       =     1.00 Bohr mag/cell
     absolute magnetization    =     1.11 Bohr mag/cell

     iteration #  2     ecut=   100.00 Ry     beta= 0.70
     Davidson diagonalization with overlap

---- Real-time Memory Report at c_bands before calling an iterative solver
           933 MiB given to the printing process from OS
             0 MiB allocation reported by mallinfo(arena+hblkhd)
          2282 MiB available memory on the node where the printing process lives
------------------
     ethr =  1.72E-07,  avg # of iterations =  6.0

     negative rho (up, down):  1.029E-05 1.664E-05

     total cpu time spent up to now is      358.7 secs

     total energy              =    -261.33959418 Ry
     estimated scf accuracy    <       0.00020468 Ry

     total magnetization       =     1.00 Bohr mag/cell
     absolute magnetization    =     1.12 Bohr mag/cell

     iteration #  3     ecut=   100.00 Ry     beta= 0.70
     Davidson diagonalization with overlap

---- Real-time Memory Report at c_bands before calling an iterative solver
           933 MiB given to the printing process from OS
             0 MiB allocation reported by mallinfo(arena+hblkhd)
          2073 MiB available memory on the node where the printing process lives
------------------
     ethr =  1.72E-07,  avg # of iterations =  5.5

     negative rho (up, down):  4.594E-06 7.709E-06

     total cpu time spent up to now is      378.2 secs

     total energy              =    -261.33963006 Ry
     estimated scf accuracy    <       0.00000183 Ry

     total magnetization       =     1.00 Bohr mag/cell
     absolute magnetization    =     1.11 Bohr mag/cell

     iteration #  4     ecut=   100.00 Ry     beta= 0.70
     Davidson diagonalization with overlap

---- Real-time Memory Report at c_bands before calling an iterative solver
           933 MiB given to the printing process from OS
             0 MiB allocation reported by mallinfo(arena+hblkhd)
          1893 MiB available memory on the node where the printing process lives
------------------
     ethr =  5.55E-09,  avg # of iterations =  5.0

     negative rho (up, down):  1.191E-06 2.158E-06

     total cpu time spent up to now is      396.8 secs

     total energy              =    -261.33963091 Ry
     estimated scf accuracy    <       0.00000065 Ry

     total magnetization       =     1.00 Bohr mag/cell
     absolute magnetization    =     1.11 Bohr mag/cell

     iteration #  5     ecut=   100.00 Ry     beta= 0.70
     Davidson diagonalization with overlap

---- Real-time Memory Report at c_bands before calling an iterative solver
           933 MiB given to the printing process from OS
             0 MiB allocation reported by mallinfo(arena+hblkhd)
          1708 MiB available memory on the node where the printing process lives
------------------
     ethr =  1.97E-09,  avg # of iterations =  3.5

     negative rho (up, down):  6.354E-09 1.863E-08

     total cpu time spent up to now is      412.9 secs

     total energy              =    -261.33963104 Ry
     estimated scf accuracy    <       0.00000003 Ry

     total magnetization       =     1.00 Bohr mag/cell
     absolute magnetization    =     1.12 Bohr mag/cell

     iteration #  6     ecut=   100.00 Ry     beta= 0.70
     Davidson diagonalization with overlap

---- Real-time Memory Report at c_bands before calling an iterative solver
           933 MiB given to the printing process from OS
             0 MiB allocation reported by mallinfo(arena+hblkhd)
          1514 MiB available memory on the node where the printing process lives
------------------
     ethr =  9.57E-11,  avg # of iterations =  5.0

     negative rho (up, down):  1.034E-08 1.525E-08

     total cpu time spent up to now is      432.0 secs

     total energy              =    -261.33963105 Ry
     estimated scf accuracy    <       0.00000004 Ry

     total magnetization       =     1.00 Bohr mag/cell
     absolute magnetization    =     1.12 Bohr mag/cell

     iteration #  7     ecut=   100.00 Ry     beta= 0.70
     Davidson diagonalization with overlap

---- Real-time Memory Report at c_bands before calling an iterative solver
           933 MiB given to the printing process from OS
             0 MiB allocation reported by mallinfo(arena+hblkhd)
          1326 MiB available memory on the node where the printing process lives
------------------
     ethr =  9.57E-11,  avg # of iterations =  2.5

     Magnetic moment per site  (integrated on atomic sphere of radius R)
     atom   1 (R=0.049)  charge=  8.0981  magn=  0.4855
     atom   2 (R=0.049)  charge=  6.0347  magn= -0.0170
     atom   3 (R=0.049)  charge=  6.0336  magn= -0.0170
     atom   4 (R=0.049)  charge=  6.0336  magn= -0.0170

     total cpu time spent up to now is      445.9 secs

     End of self-consistent calculation

 ------ SPIN UP ------------


          k = 0.0000 0.0000 0.0000 (384587 PWs)   bands (ev):

   -63.4747 -40.0238 -40.0231 -39.6825 -28.8356 -28.4111 -28.4107 -11.0620
   -11.0579 -11.0576 -10.3474 -10.3460 -10.0334  -9.9636  -9.9630  -9.7341
    -5.2725

     occupation numbers 
     1.0000   1.0000   1.0000   1.0000   1.0000   1.0000   1.0000   1.0000
     1.0000   1.0000   1.0000   1.0000   1.0000   1.0000   1.0000   1.0000
     1.0000

 ------ SPIN DOWN ----------


          k = 0.0000 0.0000 0.0000 (384587 PWs)   bands (ev):

   -62.7419 -39.4845 -39.4835 -38.5935 -28.8590 -28.4165 -28.4161 -11.0084
   -11.0083 -10.9897 -10.3403 -10.3389 -10.0429  -9.9767  -9.9762  -9.7575
    -3.4475

     occupation numbers 
     1.0000   1.0000   1.0000   1.0000   1.0000   1.0000   1.0000   1.0000
     1.0000   1.0000   1.0000   1.0000   1.0000   1.0000   1.0000   1.0000
     0.0000

     highest occupied, lowest unoccupied level (ev):    -5.2725   -3.4475

!    total energy              =    -261.33963105 Ry
     estimated scf accuracy    <          6.2E-09 Ry

     The total energy is the sum of the following terms:
     one-electron contribution =    -622.49800551 Ry
     hartree contribution      =     312.00779316 Ry
     xc contribution           =     -42.32924802 Ry
     ewald contribution        =      91.47982932 Ry

     total magnetization       =     1.00 Bohr mag/cell
     absolute magnetization    =     1.12 Bohr mag/cell

     convergence has been achieved in   7 iterations

     Forces acting on atoms (cartesian axes, Ry/au):

     atom    1 type  1   force =     0.00000000    0.00022585    0.00000000
     atom    2 type  2   force =     0.00000000    0.00351866    0.00000000
     atom    3 type  2   force =     0.00261623   -0.00187225    0.00000000
     atom    4 type  2   force =    -0.00261623   -0.00187225    0.00000000
     The non-local contrib.  to forces
     atom    1 type  1   force =     0.00000000   -0.00064724    0.00000000
     atom    2 type  2   force =     0.00000000   -1.34684103    0.00000000
     atom    3 type  2   force =    -1.16751532    0.67393017    0.00000000
     atom    4 type  2   force =     1.16751532    0.67393017    0.00000000
     The ionic contribution  to forces
     atom    1 type  1   force =    -0.00000000    0.01686740    0.00000000
     atom    2 type  2   force =    -0.00000000   19.28662772   -0.00000000
     atom    3 type  2   force =    16.71050689   -9.65174756    0.00000000
     atom    4 type  2   force =   -16.71050689   -9.65174756   -0.00000000
     The local contribution  to forces
     atom    1 type  1   force =     0.00000000   -0.01594935    0.00000000
     atom    2 type  2   force =    -0.00000000  -17.93634328    0.00000000
     atom    3 type  2   force =   -15.54046459    8.97602782    0.00000000
     atom    4 type  2   force =    15.54046459    8.97602782    0.00000000
     The core correction contribution to forces
     atom    1 type  1   force =     0.00000000    0.00000000    0.00000000
     atom    2 type  2   force =     0.00000000    0.00000000    0.00000000
     atom    3 type  2   force =     0.00000000    0.00000000    0.00000000
     atom    4 type  2   force =     0.00000000    0.00000000    0.00000000
     The Hubbard contrib.    to forces
     atom    1 type  1   force =     0.00000000    0.00000000    0.00000000
     atom    2 type  2   force =     0.00000000    0.00000000    0.00000000
     atom    3 type  2   force =     0.00000000    0.00000000    0.00000000
     atom    4 type  2   force =     0.00000000    0.00000000    0.00000000
     The SCF correction term to forces
     atom    1 type  1   force =    -0.00000000   -0.00001603   -0.00000000
     atom    2 type  2   force =     0.00000000    0.00010417    0.00000000
     atom    3 type  2   force =     0.00008925   -0.00005375   -0.00000000
     atom    4 type  2   force =    -0.00008925   -0.00005375   -0.00000000

     Total force =     0.005756     Total SCF correction =     0.000181
     Energy error            =      1.4E-04 Ry
     Gradient error          =      3.5E-03 Ry/Bohr

     number of scf cycles    =   2
     number of bfgs steps    =   1

     energy             old  =    -261.3394932074 Ry
     energy             new  =    -261.3396310498 Ry

     CASE: energy            _new < energy            _old

     new trust radius        =       0.0059929350 bohr
     new conv_thr            =       0.0000000001 Ry


ATOMIC_POSITIONS (crystal)
Ti            0.0000000000        0.0000111724        0.0000000000
F             0.0000000000        0.1196685452        0.0000000000
F             0.1035846112       -0.0598398588        0.0000000000
F            -0.1035846112       -0.0598398588        0.0000000000



     Writing config-only to output data dir ./scratch/tif3.save/
     NEW-OLD atomic charge density approx. for the potential

     negative rho (up, down):  4.298E-05 4.298E-05
     Generating pointlists ...

     total cpu time spent up to now is      451.0 secs

     Self-consistent Calculation

     iteration #  1     ecut=   100.00 Ry     beta= 0.70
     Davidson diagonalization with overlap

---- Real-time Memory Report at c_bands before calling an iterative solver
           933 MiB given to the printing process from OS
             0 MiB allocation reported by mallinfo(arena+hblkhd)
          4189 MiB available memory on the node where the printing process lives
------------------
     ethr =  1.00E-06,  avg # of iterations =  4.0

     Threshold (ethr) on eigenvalues was too large:
     Diagonalizing with lowered threshold

     Davidson diagonalization with overlap

---- Real-time Memory Report at c_bands before calling an iterative solver
           933 MiB given to the printing process from OS
             0 MiB allocation reported by mallinfo(arena+hblkhd)
          3976 MiB available memory on the node where the printing process lives
------------------
     ethr =  3.28E-08,  avg # of iterations =  5.0

     negative rho (up, down):  9.389E-06 1.507E-05

     total cpu time spent up to now is      485.8 secs

     total energy              =    -261.33964409 Ry
     estimated scf accuracy    <       0.00002912 Ry

     total magnetization       =     1.00 Bohr mag/cell
     absolute magnetization    =     1.11 Bohr mag/cell

     iteration #  2     ecut=   100.00 Ry     beta= 0.70
     Davidson diagonalization with overlap

---- Real-time Memory Report at c_bands before calling an iterative solver
           933 MiB given to the printing process from OS
             0 MiB allocation reported by mallinfo(arena+hblkhd)
          2273 MiB available memory on the node where the printing process lives
------------------
     ethr =  8.83E-08,  avg # of iterations =  6.0

     negative rho (up, down):  6.945E-06 1.130E-05

     total cpu time spent up to now is      506.7 secs

     total energy              =    -261.33964091 Ry
     estimated scf accuracy    <       0.00010592 Ry

     total magnetization       =     1.00 Bohr mag/cell
     absolute magnetization    =     1.12 Bohr mag/cell

     iteration #  3     ecut=   100.00 Ry     beta= 0.70
     Davidson diagonalization with overlap

---- Real-time Memory Report at c_bands before calling an iterative solver
           933 MiB given to the printing process from OS
             0 MiB allocation reported by mallinfo(arena+hblkhd)
          2078 MiB available memory on the node where the printing process lives
------------------
     ethr =  8.83E-08,  avg # of iterations =  5.5

     negative rho (up, down):  3.087E-06 5.232E-06

     total cpu time spent up to now is      526.7 secs

     total energy              =    -261.33965944 Ry
     estimated scf accuracy    <       0.00000093 Ry

     total magnetization       =     1.00 Bohr mag/cell
     absolute magnetization    =     1.11 Bohr mag/cell

     iteration #  4     ecut=   100.00 Ry     beta= 0.70
     Davidson diagonalization with overlap

---- Real-time Memory Report at c_bands before calling an iterative solver
           933 MiB given to the printing process from OS
             0 MiB allocation reported by mallinfo(arena+hblkhd)
          1856 MiB available memory on the node where the printing process lives
------------------
     ethr =  2.83E-09,  avg # of iterations =  5.0

     negative rho (up, down):  7.639E-07 1.412E-06

     total cpu time spent up to now is      545.5 secs

     total energy              =    -261.33965988 Ry
     estimated scf accuracy    <       0.00000035 Ry

     total magnetization       =     1.00 Bohr mag/cell
     absolute magnetization    =     1.12 Bohr mag/cell

     iteration #  5     ecut=   100.00 Ry     beta= 0.70
     Davidson diagonalization with overlap

---- Real-time Memory Report at c_bands before calling an iterative solver
           933 MiB given to the printing process from OS
             0 MiB allocation reported by mallinfo(arena+hblkhd)
          1742 MiB available memory on the node where the printing process lives
------------------
     ethr =  1.06E-09,  avg # of iterations =  3.5

     total cpu time spent up to now is      561.7 secs

     total energy              =    -261.33965995 Ry
     estimated scf accuracy    <       0.00000002 Ry

     total magnetization       =     1.00 Bohr mag/cell
     absolute magnetization    =     1.12 Bohr mag/cell

     iteration #  6     ecut=   100.00 Ry     beta= 0.70
     Davidson diagonalization with overlap

---- Real-time Memory Report at c_bands before calling an iterative solver
           933 MiB given to the printing process from OS
             0 MiB allocation reported by mallinfo(arena+hblkhd)
          1487 MiB available memory on the node where the printing process lives
------------------
     ethr =  5.16E-11,  avg # of iterations =  5.0

     total cpu time spent up to now is      582.1 secs

     total energy              =    -261.33965996 Ry
     estimated scf accuracy    <       0.00000002 Ry

     total magnetization       =     1.00 Bohr mag/cell
     absolute magnetization    =     1.12 Bohr mag/cell

     iteration #  7     ecut=   100.00 Ry     beta= 0.70
     Davidson diagonalization with overlap

---- Real-time Memory Report at c_bands before calling an iterative solver
           933 MiB given to the printing process from OS
             0 MiB allocation reported by mallinfo(arena+hblkhd)
          1267 MiB available memory on the node where the printing process lives
------------------
     ethr =  5.16E-11,  avg # of iterations =  2.5

     total cpu time spent up to now is      598.5 secs

     total energy              =    -261.33965996 Ry
     estimated scf accuracy    <          3.4E-09 Ry

     total magnetization       =     1.00 Bohr mag/cell
     absolute magnetization    =     1.12 Bohr mag/cell

     iteration #  8     ecut=   100.00 Ry     beta= 0.70
     Davidson diagonalization with overlap

---- Real-time Memory Report at c_bands before calling an iterative solver
           933 MiB given to the printing process from OS
             0 MiB allocation reported by mallinfo(arena+hblkhd)
          1104 MiB available memory on the node where the printing process lives
------------------
     ethr =  1.03E-11,  avg # of iterations =  5.0

     total cpu time spent up to now is      616.8 secs

     total energy              =    -261.33965996 Ry
     estimated scf accuracy    <          7.2E-10 Ry

     total magnetization       =     1.00 Bohr mag/cell
     absolute magnetization    =     1.12 Bohr mag/cell

     iteration #  9     ecut=   100.00 Ry     beta= 0.70
     Davidson diagonalization with overlap

---- Real-time Memory Report at c_bands before calling an iterative solver
           933 MiB given to the printing process from OS
             0 MiB allocation reported by mallinfo(arena+hblkhd)
           913 MiB available memory on the node where the printing process lives
------------------
     ethr =  2.19E-12,  avg # of iterations =  1.0

     total cpu time spent up to now is      630.6 secs

     total energy              =    -261.33965996 Ry
     estimated scf accuracy    <          4.9E-10 Ry

     total magnetization       =     1.00 Bohr mag/cell
     absolute magnetization    =     1.12 Bohr mag/cell

     iteration # 10     ecut=   100.00 Ry     beta= 0.70
     Davidson diagonalization with overlap

---- Real-time Memory Report at c_bands before calling an iterative solver
           933 MiB given to the printing process from OS
             0 MiB allocation reported by mallinfo(arena+hblkhd)
           716 MiB available memory on the node where the printing process lives
------------------
     ethr =  1.49E-12,  avg # of iterations =  4.0

     Magnetic moment per site  (integrated on atomic sphere of radius R)
     atom   1 (R=0.049)  charge=  8.0968  magn=  0.4871
     atom   2 (R=0.049)  charge=  6.0339  magn= -0.0171
     atom   3 (R=0.049)  charge=  6.0324  magn= -0.0171
     atom   4 (R=0.049)  charge=  6.0324  magn= -0.0171

     total cpu time spent up to now is      646.3 secs

     End of self-consistent calculation

 ------ SPIN UP ------------


          k = 0.0000 0.0000 0.0000 (384587 PWs)   bands (ev):

   -63.4943 -40.0354 -40.0348 -39.7028 -28.8259 -28.4084 -28.4078 -11.0553
   -11.0462 -11.0458 -10.3352 -10.3342 -10.0246  -9.9587  -9.9582  -9.7262
    -5.2888

     occupation numbers 
     1.0000   1.0000   1.0000   1.0000   1.0000   1.0000   1.0000   1.0000
     1.0000   1.0000   1.0000   1.0000   1.0000   1.0000   1.0000   1.0000
     1.0000

 ------ SPIN DOWN ----------


          k = 0.0000 0.0000 0.0000 (384587 PWs)   bands (ev):

   -62.7593 -39.4941 -39.4934 -38.6101 -28.8496 -28.4145 -28.4139 -10.9968
   -10.9964 -10.9833 -10.3285 -10.3275 -10.0344  -9.9722  -9.9718  -9.7498
    -3.4594

     occupation numbers 
     1.0000   1.0000   1.0000   1.0000   1.0000   1.0000   1.0000   1.0000
     1.0000   1.0000   1.0000   1.0000   1.0000   1.0000   1.0000   1.0000
     0.0000

     highest occupied, lowest unoccupied level (ev):    -5.2888   -3.4594

!    total energy              =    -261.33965996 Ry
     estimated scf accuracy    <          1.3E-11 Ry

     The total energy is the sum of the following terms:
     one-electron contribution =    -621.85397448 Ry
     hartree contribution      =     311.68391783 Ry
     xc contribution           =     -42.32390837 Ry
     ewald contribution        =      91.15430506 Ry

     total magnetization       =     1.00 Bohr mag/cell
     absolute magnetization    =     1.12 Bohr mag/cell

     convergence has been achieved in  10 iterations

     Forces acting on atoms (cartesian axes, Ry/au):

     atom    1 type  1   force =     0.00000000    0.00010561    0.00000000
     atom    2 type  2   force =     0.00000000    0.00025167    0.00000000
     atom    3 type  2   force =    -0.00016891   -0.00017864    0.00000000
     atom    4 type  2   force =     0.00016891   -0.00017864    0.00000000
     The non-local contrib.  to forces
     atom    1 type  1   force =     0.00000000   -0.00070619    0.00000000
     atom    2 type  2   force =     0.00000000   -1.35131840    0.00000000
     atom    3 type  2   force =    -1.17111798    0.67674191    0.00000000
     atom    4 type  2   force =     1.17111798    0.67674191    0.00000000
     The ionic contribution  to forces
     atom    1 type  1   force =     0.00000000    0.02296147    0.00000000
     atom    2 type  2   force =    -0.00000000   19.22089063    0.00000000
     atom    3 type  2   force =    16.65211598   -9.62192605    0.00000000
     atom    4 type  2   force =   -16.65211598   -9.62192605   -0.00000000
     The local contribution  to forces
     atom    1 type  1   force =    -0.00000000   -0.02209959    0.00000000
     atom    2 type  2   force =    -0.00000000  -17.86926552    0.00000000
     atom    3 type  2   force =   -15.48116300    8.94505399    0.00000000
     atom    4 type  2   force =    15.48116300    8.94505399    0.00000000
     The core correction contribution to forces
     atom    1 type  1   force =     0.00000000    0.00000000    0.00000000
     atom    2 type  2   force =     0.00000000    0.00000000    0.00000000
     atom    3 type  2   force =     0.00000000    0.00000000    0.00000000
     atom    4 type  2   force =     0.00000000    0.00000000    0.00000000
     The Hubbard contrib.    to forces
     atom    1 type  1   force =     0.00000000    0.00000000    0.00000000
     atom    2 type  2   force =     0.00000000    0.00000000    0.00000000
     atom    3 type  2   force =     0.00000000    0.00000000    0.00000000
     atom    4 type  2   force =     0.00000000    0.00000000    0.00000000
     The SCF correction term to forces
     atom    1 type  1   force =    -0.00000000    0.00000080   -0.00000000
     atom    2 type  2   force =     0.00000000   -0.00000415   -0.00000000
     atom    3 type  2   force =    -0.00000391    0.00000239   -0.00000000
     atom    4 type  2   force =     0.00000391    0.00000239   -0.00000000

     Total force =     0.000442     Total SCF correction =     0.000008
     Energy error            =      2.9E-05 Ry
     Gradient error          =      2.5E-04 Ry/Bohr

     bfgs converged in   3 scf cycles and   2 bfgs steps
     (criteria: energy <  1.0E-04 Ry, force <  1.0E-03 Ry/Bohr)

     End of BFGS Geometry Optimization

     Final energy             =    -261.3396599630 Ry

     File ./scratch/tif3.bfgs deleted, as requested
Begin final coordinates

ATOMIC_POSITIONS (crystal)
Ti            0.0000000000        0.0000111724        0.0000000000
F             0.0000000000        0.1196685452        0.0000000000
F             0.1035846112       -0.0598398588        0.0000000000
F            -0.1035846112       -0.0598398588        0.0000000000
End final coordinates



     Writing all to output data dir ./scratch/tif3.save/

     init_run     :     13.87s CPU     14.75s WALL (       1 calls)
     electrons    :    606.46s CPU    622.03s WALL (       3 calls)
     update_pot   :      6.43s CPU      7.22s WALL (       2 calls)
     forces       :      2.55s CPU      2.74s WALL (       3 calls)

     Called by init_run:
     wfcinit      :      9.31s CPU      9.60s WALL (       1 calls)
     wfcinit:atom :      0.08s CPU      0.12s WALL (       2 calls)
     wfcinit:wfcr :      8.97s CPU      9.22s WALL (       2 calls)
     potinit      :      2.65s CPU      3.09s WALL (       1 calls)
     hinit0       :      0.35s CPU      0.42s WALL (       1 calls)

     Called by electrons:
     c_bands      :    415.00s CPU    422.66s WALL (      35 calls)
     sum_band     :     83.29s CPU     86.09s WALL (      35 calls)
     v_of_rho     :     88.44s CPU     92.97s WALL (      36 calls)
     v_h          :      5.38s CPU      5.77s WALL (      36 calls)
     v_xc         :     83.06s CPU     87.20s WALL (      36 calls)
     mix_rho      :     23.52s CPU     24.68s WALL (      35 calls)

     Called by c_bands:
     init_us_2    :      1.03s CPU      1.03s WALL (     148 calls)
     init_us_2:cp :      1.02s CPU      1.03s WALL (     148 calls)
     cegterg      :    412.57s CPU    420.21s WALL (      70 calls)

     Called by sum_band:
     sum_band:wei :      0.00s CPU      0.00s WALL (      35 calls)
     sum_band:loo :     64.72s CPU     65.77s WALL (      35 calls)
     sum_band:buf :      0.74s CPU      0.74s WALL (      70 calls)
     sum_band:ini :      0.49s CPU      0.49s WALL (      70 calls)

     Called by *egterg:
     cdiaghg      :      0.14s CPU      0.14s WALL (     382 calls)
     cegterg:over :     14.74s CPU     14.76s WALL (     320 calls)
     cegterg:upda :      9.47s CPU      9.50s WALL (     320 calls)
     cegterg:last :     12.47s CPU     12.47s WALL (     181 calls)
     h_psi        :    377.03s CPU    384.75s WALL (     392 calls)
     g_psi        :      1.05s CPU      1.05s WALL (     320 calls)

     Called by h_psi:
     h_psi:calbec :      3.61s CPU      3.61s WALL (     392 calls)
     vloc_psi     :    368.38s CPU    375.93s WALL (     392 calls)
     add_vuspsi   :      2.54s CPU      2.54s WALL (     392 calls)

     General routines
     calbec       :      4.01s CPU      4.01s WALL (     416 calls)
     fft          :     64.57s CPU     69.43s WALL (     687 calls)
     ffts         :      6.33s CPU      6.81s WALL (      70 calls)
     fftw         :    348.49s CPU    356.93s WALL (    8626 calls)

     Parallel routines

     PWSCF        :  10m30.22s CPU  10m48.14s WALL


   This run was terminated on:  15:15:42  19Jun2024            

=------------------------------------------------------------------------------=
   JOB DONE.
=------------------------------------------------------------------------------=
