
     Program PWSCF v.7.2 starts on 21Nov2024 at 14:11:23 

     This program is part of the open-source Quantum ESPRESSO suite
     for quantum simulation of materials; please cite
         "P. Giannozzi et al., J. Phys.:Condens. Matter 21 395502 (2009);
         "P. Giannozzi et al., J. Phys.:Condens. Matter 29 465901 (2017);
         "P. Giannozzi et al., J. Chem. Phys. 152 154105 (2020);
          URL http://www.quantum-espresso.org", 
     in publications or presentations arising from this work. More details at
     http://www.quantum-espresso.org/quote

     Parallel version (MPI), running on     6 processors

     MPI processes distributed on     1 nodes
     4010 MiB available memory on the printing compute node when the environment starts

     Waiting for input...
     Reading input from standard input

     Current dimensions of program PWSCF are:
     Max number of different atomic species (ntypx) = 10
     Max number of k-points (npk) =  40000
     Max angular momentum in pseudopotentials (lmaxx) =  4
     Message from routine setup:
     the system is metallic, specify occupations
     Message from routine setup:
     using ibrav=0 with symmetry is DISCOURAGED, use correct ibrav instead

     R & G space division:  proc/nbgrp/npool/nimage =       6
     Subspace diagonalization in iterative solution of the eigenvalue problem:
     a serial algorithm will be used


     Parallelization info
     --------------------
     sticks:   dense  smooth     PW     G-vecs:    dense   smooth      PW
     Min        1894    1894    473               151984   151984   18966
     Max        1895    1895    475               151987   151987   18967
     Sum       11369   11369   2845               911913   911913  113801

     Using Slab Decomposition



     bravais-lattice index     =            0
     lattice parameter (alat)  =      18.8973  a.u.
     unit-cell volume          =    6748.3345 (a.u.)^3
     number of atoms/cell      =            4
     number of atomic types    =            2
     number of electrons       =        33.00 (up:  17.00, down:  16.00)
     number of Kohn-Sham states=           17
     kinetic-energy cutoff     =     100.0000  Ry
     charge density cutoff     =     400.0000  Ry
     scf convergence threshold =      1.0E-08
     mixing beta               =       0.7000
     number of iterations used =            8  plain     mixing
     energy convergence thresh.=      1.0E-04
     force convergence thresh. =      1.0E-03
     Exchange-correlation=  SLA  PW   PBX  PBC
                           (   1   4   3   4   0   0   0)
     nstep                     =           50


     celldm(1)=  18.897261  celldm(2)=   0.000000  celldm(3)=   0.000000
     celldm(4)=   0.000000  celldm(5)=   0.000000  celldm(6)=   0.000000

     crystal axes: (cart. coord. in units of alat)
               a(1) = (   1.000000   0.000000   0.000000 )  
               a(2) = (   0.000000   1.000000   0.000000 )  
               a(3) = (   0.000000   0.000000   1.000000 )  

     reciprocal axes: (cart. coord. in units 2 pi/alat)
               b(1) = (  1.000000  0.000000  0.000000 )  
               b(2) = (  0.000000  1.000000  0.000000 )  
               b(3) = (  0.000000  0.000000  1.000000 )  


     PseudoPot. # 1 for Ti read from file:
     ./pseudo/Ti.pbe-tm-gipaw-semi-dc.UPF
     MD5 check sum: 0d5e5be629ad81857689d77ece9f3b93
     Pseudo is Norm-conserving, Zval = 12.0
     Generated by new atomic code, or converted to UPF format
     Using radial grid of 1571 points,  2 beta functions with: 
                l(1) =   0
                l(2) =   1

     PseudoPot. # 2 for F  read from file:
     ./pseudo/F.pbe-tm-new-gipaw-dc.UPF
     MD5 check sum: ce5ef009770ae7616321e2944b9cf54d
     Pseudo is Norm-conserving, Zval =  7.0
     Generated by new atomic code, or converted to UPF format
     Using radial grid of 1481 points,  1 beta functions with: 
                l(1) =   0

     atomic species   valence    mass     pseudopotential
        Ti            12.00    47.86700     Ti( 1.00)
        F              7.00    18.99800     F ( 1.00)

     Starting magnetic structure 
     atomic species   magnetization
        Ti           0.000
        F            0.000

      4 Sym. Ops. (no inversion) found


                                    s                        frac. trans.

      isym =  1     identity                                     

 cryst.   s( 1) = (     1          0          0      )
                  (     0          1          0      )
                  (     0          0          1      )

 cart.    s( 1) = (  1.0000000  0.0000000  0.0000000 )
                  (  0.0000000  1.0000000  0.0000000 )
                  (  0.0000000  0.0000000  1.0000000 )


      isym =  2     180 deg rotation - cart. axis [0,1,0]        

 cryst.   s( 2) = (    -1          0          0      )
                  (     0          1          0      )
                  (     0          0         -1      )

 cart.    s( 2) = ( -1.0000000  0.0000000  0.0000000 )
                  (  0.0000000  1.0000000  0.0000000 )
                  (  0.0000000  0.0000000 -1.0000000 )


      isym =  3     inv. 180 deg rotation - cart. axis [0,0,1]   

 cryst.   s( 3) = (     1          0          0      )
                  (     0          1          0      )
                  (     0          0         -1      )

 cart.    s( 3) = (  1.0000000  0.0000000  0.0000000 )
                  (  0.0000000  1.0000000  0.0000000 )
                  (  0.0000000  0.0000000 -1.0000000 )


      isym =  4     inv. 180 deg rotation - cart. axis [1,0,0]   

 cryst.   s( 4) = (    -1          0          0      )
                  (     0          1          0      )
                  (     0          0          1      )

 cart.    s( 4) = ( -1.0000000  0.0000000  0.0000000 )
                  (  0.0000000  1.0000000  0.0000000 )
                  (  0.0000000  0.0000000  1.0000000 )


   Cartesian axes

     site n.     atom                  positions (alat units)
         1           Ti  tau(   1) = (   0.0000000   0.0000112   0.0000000  )
         2           F   tau(   2) = (   0.0000000   0.1196685   0.0000000  )
         3           F   tau(   3) = (   0.1035846  -0.0598399   0.0000000  )
         4           F   tau(   4) = (  -0.1035846  -0.0598399   0.0000000  )

   Crystallographic axes

     site n.     atom                  positions (cryst. coord.)
         1           Ti  tau(   1) = (  0.0000000  0.0000112  0.0000000  )
         2           F   tau(   2) = (  0.0000000  0.1196685  0.0000000  )
         3           F   tau(   3) = (  0.1035846 -0.0598399  0.0000000  )
         4           F   tau(   4) = ( -0.1035846 -0.0598399  0.0000000  )

     number of k points=     1
                       cart. coord. in units 2pi/alat
        k(    1) = (   0.0000000   0.0000000   0.0000000), wk =   1.0000000

                       cryst. coord.
        k(    1) = (   0.0000000   0.0000000   0.0000000), wk =   1.0000000

     Dense  grid:   911913 G-vectors     FFT dimensions: ( 125, 125, 125)

     Dynamical RAM for                 wfc:       4.93 MB

     Dynamical RAM for     wfc (w. buffer):      14.78 MB

     Dynamical RAM for           str. fact:       4.64 MB

     Dynamical RAM for           local pot:       0.00 MB

     Dynamical RAM for          nlocal pot:       2.03 MB

     Dynamical RAM for                qrad:       0.28 MB

     Dynamical RAM for          rho,v,vnew:      28.94 MB

     Dynamical RAM for               rhoin:       9.65 MB

     Dynamical RAM for            rho*nmix:      74.21 MB

     Dynamical RAM for           G-vectors:       9.86 MB

     Dynamical RAM for          h,s,v(r/c):       0.05 MB

     Dynamical RAM for          <psi|beta>:       0.00 MB

     Dynamical RAM for                 psi:       9.85 MB

     Dynamical RAM for                hpsi:       9.85 MB

     Dynamical RAM for      wfcinit/wfcrot:      24.38 MB

     Estimated static dynamical RAM per process >      92.14 MB

     Estimated max dynamical RAM per process >     190.73 MB

     Estimated total dynamical RAM >       1.12 GB
     Generating pointlists ...
     new r_m :   0.0493 (alat units)  0.9325 (a.u.) for type    1
     new r_m :   0.0493 (alat units)  0.9325 (a.u.) for type    2

     Initial potential from superposition of free atoms

     starting charge      31.0000, renormalised to      33.0000

     negative rho (up, down):  4.222E-04 4.222E-04
     Starting wfcs are   42 randomized atomic wfcs

     total cpu time spent up to now is        3.6 secs

     Self-consistent Calculation

     iteration #  1     ecut=   100.00 Ry     beta= 0.70
     Davidson diagonalization with overlap

---- Real-time Memory Report at c_bands before calling an iterative solver
           158 MiB given to the printing process from OS
             0 MiB allocation reported by mallinfo(arena+hblkhd)
          3375 MiB available memory on the node where the printing process lives
------------------
     ethr =  1.00E-04,  avg # of iterations =  7.5

     negative rho (up, down):  0.000E+00 2.766E-05

     total cpu time spent up to now is        9.0 secs

     total energy              =    -257.30543959 Ry
     estimated scf accuracy    <       0.75475800 Ry

     total magnetization       =     1.00 Bohr mag/cell
     absolute magnetization    =     1.00 Bohr mag/cell

     iteration #  2     ecut=   100.00 Ry     beta= 0.70
     Davidson diagonalization with overlap

---- Real-time Memory Report at c_bands before calling an iterative solver
           220 MiB given to the printing process from OS
             0 MiB allocation reported by mallinfo(arena+hblkhd)
          2865 MiB available memory on the node where the printing process lives
------------------
     ethr =  2.29E-03,  avg # of iterations =  5.5

     negative rho (up, down):  0.000E+00 1.554E-05

     total cpu time spent up to now is       13.3 secs

     total energy              =    -257.56295439 Ry
     estimated scf accuracy    <       0.50506648 Ry

     total magnetization       =     1.00 Bohr mag/cell
     absolute magnetization    =     1.00 Bohr mag/cell

     iteration #  3     ecut=   100.00 Ry     beta= 0.70
     Davidson diagonalization with overlap

---- Real-time Memory Report at c_bands before calling an iterative solver
           230 MiB given to the printing process from OS
             0 MiB allocation reported by mallinfo(arena+hblkhd)
          2803 MiB available memory on the node where the printing process lives
------------------
     ethr =  1.53E-03,  avg # of iterations =  3.0

     negative rho (up, down):  0.000E+00 3.513E-06

     total cpu time spent up to now is       17.0 secs

     total energy              =    -257.64803902 Ry
     estimated scf accuracy    <       0.01269896 Ry

     total magnetization       =     1.00 Bohr mag/cell
     absolute magnetization    =     1.01 Bohr mag/cell

     iteration #  4     ecut=   100.00 Ry     beta= 0.70
     Davidson diagonalization with overlap

---- Real-time Memory Report at c_bands before calling an iterative solver
           239 MiB given to the printing process from OS
             0 MiB allocation reported by mallinfo(arena+hblkhd)
          2751 MiB available memory on the node where the printing process lives
------------------
     ethr =  3.85E-05,  avg # of iterations =  5.5

     negative rho (up, down):  0.000E+00 9.483E-07

     total cpu time spent up to now is       21.4 secs

     total energy              =    -257.65313944 Ry
     estimated scf accuracy    <       0.00509788 Ry

     total magnetization       =     1.00 Bohr mag/cell
     absolute magnetization    =     1.02 Bohr mag/cell

     iteration #  5     ecut=   100.00 Ry     beta= 0.70
     Davidson diagonalization with overlap

---- Real-time Memory Report at c_bands before calling an iterative solver
           248 MiB given to the printing process from OS
             0 MiB allocation reported by mallinfo(arena+hblkhd)
          2686 MiB available memory on the node where the printing process lives
------------------
     ethr =  1.54E-05,  avg # of iterations =  3.5

     negative rho (up, down):  0.000E+00 1.545E-07

     total cpu time spent up to now is       25.5 secs

     total energy              =    -257.65426126 Ry
     estimated scf accuracy    <       0.00040728 Ry

     total magnetization       =     1.00 Bohr mag/cell
     absolute magnetization    =     1.02 Bohr mag/cell

     iteration #  6     ecut=   100.00 Ry     beta= 0.70
     Davidson diagonalization with overlap

---- Real-time Memory Report at c_bands before calling an iterative solver
           257 MiB given to the printing process from OS
             0 MiB allocation reported by mallinfo(arena+hblkhd)
          2626 MiB available memory on the node where the printing process lives
------------------
     ethr =  1.23E-06,  avg # of iterations =  5.0

     total cpu time spent up to now is       29.8 secs

     total energy              =    -257.65426072 Ry
     estimated scf accuracy    <       0.00029948 Ry

     total magnetization       =     1.00 Bohr mag/cell
     absolute magnetization    =     1.02 Bohr mag/cell

     iteration #  7     ecut=   100.00 Ry     beta= 0.70
     Davidson diagonalization with overlap

---- Real-time Memory Report at c_bands before calling an iterative solver
           267 MiB given to the printing process from OS
             0 MiB allocation reported by mallinfo(arena+hblkhd)
          2571 MiB available memory on the node where the printing process lives
------------------
     ethr =  9.08E-07,  avg # of iterations =  2.5

     total cpu time spent up to now is       33.5 secs

     total energy              =    -257.65431748 Ry
     estimated scf accuracy    <       0.00000370 Ry

     total magnetization       =     1.00 Bohr mag/cell
     absolute magnetization    =     1.02 Bohr mag/cell

     iteration #  8     ecut=   100.00 Ry     beta= 0.70
     Davidson diagonalization with overlap

---- Real-time Memory Report at c_bands before calling an iterative solver
           276 MiB given to the printing process from OS
             0 MiB allocation reported by mallinfo(arena+hblkhd)
          2509 MiB available memory on the node where the printing process lives
------------------
     ethr =  1.12E-08,  avg # of iterations =  5.5

     total cpu time spent up to now is       38.7 secs

     total energy              =    -257.65432207 Ry
     estimated scf accuracy    <       0.00000837 Ry

     total magnetization       =     1.00 Bohr mag/cell
     absolute magnetization    =     1.02 Bohr mag/cell

     iteration #  9     ecut=   100.00 Ry     beta= 0.70
     Davidson diagonalization with overlap

---- Real-time Memory Report at c_bands before calling an iterative solver
           285 MiB given to the printing process from OS
             0 MiB allocation reported by mallinfo(arena+hblkhd)
          2452 MiB available memory on the node where the printing process lives
------------------
     ethr =  1.12E-08,  avg # of iterations =  4.0

     total cpu time spent up to now is       42.9 secs

     total energy              =    -257.65432348 Ry
     estimated scf accuracy    <       0.00000015 Ry

     total magnetization       =     1.00 Bohr mag/cell
     absolute magnetization    =     1.02 Bohr mag/cell

     iteration # 10     ecut=   100.00 Ry     beta= 0.70
     Davidson diagonalization with overlap

---- Real-time Memory Report at c_bands before calling an iterative solver
           295 MiB given to the printing process from OS
             0 MiB allocation reported by mallinfo(arena+hblkhd)
          2387 MiB available memory on the node where the printing process lives
------------------
     ethr =  4.41E-10,  avg # of iterations =  5.0

     total cpu time spent up to now is       47.7 secs

     total energy              =    -257.65432362 Ry
     estimated scf accuracy    <       0.00000011 Ry

     total magnetization       =     1.00 Bohr mag/cell
     absolute magnetization    =     1.02 Bohr mag/cell

     iteration # 11     ecut=   100.00 Ry     beta= 0.70
     Davidson diagonalization with overlap

---- Real-time Memory Report at c_bands before calling an iterative solver
           295 MiB given to the printing process from OS
             0 MiB allocation reported by mallinfo(arena+hblkhd)
          2387 MiB available memory on the node where the printing process lives
------------------
     ethr =  3.43E-10,  avg # of iterations =  1.5

     total cpu time spent up to now is       51.0 secs

     total energy              =    -257.65432360 Ry
     estimated scf accuracy    <       0.00000005 Ry

     total magnetization       =     1.00 Bohr mag/cell
     absolute magnetization    =     1.02 Bohr mag/cell

     iteration # 12     ecut=   100.00 Ry     beta= 0.70
     Davidson diagonalization with overlap

---- Real-time Memory Report at c_bands before calling an iterative solver
           295 MiB given to the printing process from OS
             0 MiB allocation reported by mallinfo(arena+hblkhd)
          2362 MiB available memory on the node where the printing process lives
------------------
     ethr =  1.52E-10,  avg # of iterations =  4.0

     Magnetic moment per site  (integrated on atomic sphere of radius R)
     atom   1 (R=0.049)  charge=  5.2041  magn=  0.0449
     atom   2 (R=0.049)  charge=  4.2882  magn=  0.0123
     atom   3 (R=0.049)  charge=  4.2899  magn=  0.0123
     atom   4 (R=0.049)  charge=  4.2899  magn=  0.0123

     total cpu time spent up to now is       55.2 secs

     End of self-consistent calculation

 ------ SPIN UP ------------


          k = 0.0000 0.0000 0.0000 (113801 PWs)   bands (ev):

   -62.4619 -45.7417 -45.7378 -35.4028 -28.3290 -24.9267 -24.9255 -16.8077
   -16.8032 -15.4596 -15.4557 -12.4803 -11.4982 -11.3598  -5.7879  -5.7827
    -2.1127

     occupation numbers 
     1.0000   1.0000   1.0000   1.0000   1.0000   1.0000   1.0000   1.0000
     1.0000   1.0000   1.0000   1.0000   1.0000   1.0000   1.0000   1.0000
     1.0000

 ------ SPIN DOWN ----------


          k = 0.0000 0.0000 0.0000 (113801 PWs)   bands (ev):

   -62.3458 -45.6636 -45.6598 -35.2631 -28.2589 -24.8329 -24.8316 -16.7359
   -16.7313 -15.3834 -15.3795 -12.4571 -11.4465 -11.2091  -5.7059  -5.7006
    -1.2123

     occupation numbers 
     1.0000   1.0000   1.0000   1.0000   1.0000   1.0000   1.0000   1.0000
     1.0000   1.0000   1.0000   1.0000   1.0000   1.0000   1.0000   1.0000
     0.0000

     highest occupied, lowest unoccupied level (ev):    -2.1127   -1.2123

!    total energy              =    -257.65432361 Ry
     estimated scf accuracy    <          9.0E-09 Ry

     The total energy is the sum of the following terms:
     one-electron contribution =    -701.66328884 Ry
     hartree contribution      =     352.11973807 Ry
     xc contribution           =     -44.84223046 Ry
     ewald contribution        =     136.73145762 Ry

     total magnetization       =     1.00 Bohr mag/cell
     absolute magnetization    =     1.02 Bohr mag/cell

     convergence has been achieved in  12 iterations

     Forces acting on atoms (cartesian axes, Ry/au):

     atom    1 type  1   force =     0.00000000    0.00510755    0.00000000
     atom    2 type  2   force =     0.00000000    3.53830179    0.00000000
     atom    3 type  2   force =     3.06618345   -1.77170467    0.00000000
     atom    4 type  2   force =    -3.06618345   -1.77170467    0.00000000
     The non-local contrib.  to forces
     atom    1 type  1   force =     0.00000000   -0.00184130    0.00000000
     atom    2 type  2   force =     0.00000000    0.40376127    0.00000000
     atom    3 type  2   force =     0.34871321   -0.20181330    0.00000000
     atom    4 type  2   force =    -0.34871321   -0.20181330   -0.00000000
     The ionic contribution  to forces
     atom    1 type  1   force =    -0.00000000    0.05166334   -0.00000000
     atom    2 type  2   force =     0.00000000   43.24700391    0.00000000
     atom    3 type  2   force =    37.46726098  -21.64933362   -0.00000000
     atom    4 type  2   force =   -37.46726098  -21.64933362   -0.00000000
     The local contribution  to forces
     atom    1 type  1   force =     0.00000000   -0.04464440    0.00000000
     atom    2 type  2   force =    -0.00000000  -40.11223989    0.00000000
     atom    3 type  2   force =   -34.74957739   20.07932568    0.00000000
     atom    4 type  2   force =    34.74957739   20.07932568    0.00000000
     The core correction contribution to forces
     atom    1 type  1   force =     0.00000000    0.00000000    0.00000000
     atom    2 type  2   force =     0.00000000    0.00000000    0.00000000
     atom    3 type  2   force =     0.00000000    0.00000000    0.00000000
     atom    4 type  2   force =     0.00000000    0.00000000    0.00000000
     The Hubbard contrib.    to forces
     atom    1 type  1   force =     0.00000000    0.00000000    0.00000000
     atom    2 type  2   force =     0.00000000    0.00000000    0.00000000
     atom    3 type  2   force =     0.00000000    0.00000000    0.00000000
     atom    4 type  2   force =     0.00000000    0.00000000    0.00000000
     The SCF correction term to forces
     atom    1 type  1   force =    -0.00000000   -0.00007851   -0.00000000
     atom    2 type  2   force =    -0.00000000   -0.00023192   -0.00000000
     atom    3 type  2   force =    -0.00021335    0.00010814   -0.00000000
     atom    4 type  2   force =     0.00021335    0.00010814   -0.00000000

     Total force =     6.131920     Total SCF correction =     0.000418

     BFGS Geometry Optimization
     Energy error            =      0.0E+00 Ry
     Gradient error          =      3.5E+00 Ry/Bohr

     number of scf cycles    =   1
     number of bfgs steps    =   0

     energy             new  =    -257.6543236120 Ry

     new trust radius        =       0.5000000000 bohr
     new conv_thr            =       0.0000000100 Ry


ATOMIC_POSITIONS (crystal)
Ti            0.0000000000        0.0000493341        0.0000000000
F             0.0000000000        0.1461054128        0.0000000000
F             0.1264939872       -0.0730773735        0.0000000000
F            -0.1264939872       -0.0730773735        0.0000000000



     Writing config-only to output data dir ./scratch/tif3.save/
     NEW-OLD atomic charge density approx. for the potential

     negative rho (up, down):  5.216E-06 5.216E-06
     Generating pointlists ...

     total cpu time spent up to now is       56.8 secs

     Self-consistent Calculation

     iteration #  1     ecut=   100.00 Ry     beta= 0.70
     Davidson diagonalization with overlap

---- Real-time Memory Report at c_bands before calling an iterative solver
           300 MiB given to the printing process from OS
             0 MiB allocation reported by mallinfo(arena+hblkhd)
          3292 MiB available memory on the node where the printing process lives
------------------
     ethr =  1.00E-06,  avg # of iterations = 18.0

     negative rho (up, down):  0.000E+00 1.421E-04

     total cpu time spent up to now is       70.4 secs

     total energy              =    -260.29066178 Ry
     estimated scf accuracy    <       0.74414841 Ry

     total magnetization       =     1.00 Bohr mag/cell
     absolute magnetization    =     1.02 Bohr mag/cell

     iteration #  2     ecut=   100.00 Ry     beta= 0.70
     Davidson diagonalization with overlap

---- Real-time Memory Report at c_bands before calling an iterative solver
           300 MiB given to the printing process from OS
             0 MiB allocation reported by mallinfo(arena+hblkhd)
          2823 MiB available memory on the node where the printing process lives
------------------
     ethr =  2.25E-03,  avg # of iterations =  5.5

     negative rho (up, down):  0.000E+00 1.015E-04

     total cpu time spent up to now is       75.2 secs

     total energy              =    -260.22642943 Ry
     estimated scf accuracy    <       2.18075784 Ry

     total magnetization       =     1.00 Bohr mag/cell
     absolute magnetization    =     1.02 Bohr mag/cell

     iteration #  3     ecut=   100.00 Ry     beta= 0.70
     Davidson diagonalization with overlap

---- Real-time Memory Report at c_bands before calling an iterative solver
           300 MiB given to the printing process from OS
             0 MiB allocation reported by mallinfo(arena+hblkhd)
          2767 MiB available memory on the node where the printing process lives
------------------
     ethr =  2.25E-03,  avg # of iterations =  4.5

     negative rho (up, down):  0.000E+00 3.996E-05

     total cpu time spent up to now is       79.4 secs

     total energy              =    -260.68077105 Ry
     estimated scf accuracy    <       0.01091256 Ry

     total magnetization       =     1.00 Bohr mag/cell
     absolute magnetization    =     1.03 Bohr mag/cell

     iteration #  4     ecut=   100.00 Ry     beta= 0.70
     Davidson diagonalization with overlap

---- Real-time Memory Report at c_bands before calling an iterative solver
           300 MiB given to the printing process from OS
             0 MiB allocation reported by mallinfo(arena+hblkhd)
          2709 MiB available memory on the node where the printing process lives
------------------
     ethr =  3.31E-05,  avg # of iterations =  5.0

     negative rho (up, down):  0.000E+00 1.139E-06

     total cpu time spent up to now is       84.0 secs

     total energy              =    -260.68249254 Ry
     estimated scf accuracy    <       0.01534895 Ry

     total magnetization       =     1.00 Bohr mag/cell
     absolute magnetization    =     1.04 Bohr mag/cell

     iteration #  5     ecut=   100.00 Ry     beta= 0.70
     Davidson diagonalization with overlap

---- Real-time Memory Report at c_bands before calling an iterative solver
           300 MiB given to the printing process from OS
             0 MiB allocation reported by mallinfo(arena+hblkhd)
          2680 MiB available memory on the node where the printing process lives
------------------
     ethr =  3.31E-05,  avg # of iterations =  3.5

     negative rho (up, down):  0.000E+00 4.196E-07

     total cpu time spent up to now is       87.8 secs

     total energy              =    -260.68554978 Ry
     estimated scf accuracy    <       0.00014674 Ry

     total magnetization       =     1.00 Bohr mag/cell
     absolute magnetization    =     1.05 Bohr mag/cell

     iteration #  6     ecut=   100.00 Ry     beta= 0.70
     Davidson diagonalization with overlap

---- Real-time Memory Report at c_bands before calling an iterative solver
           300 MiB given to the printing process from OS
             0 MiB allocation reported by mallinfo(arena+hblkhd)
          2630 MiB available memory on the node where the printing process lives
------------------
     ethr =  4.45E-07,  avg # of iterations =  5.0

     negative rho (up, down):  0.000E+00 2.585E-07

     total cpu time spent up to now is       92.9 secs

     total energy              =    -260.68564635 Ry
     estimated scf accuracy    <       0.00066040 Ry

     total magnetization       =     1.00 Bohr mag/cell
     absolute magnetization    =     1.06 Bohr mag/cell

     iteration #  7     ecut=   100.00 Ry     beta= 0.70
     Davidson diagonalization with overlap

---- Real-time Memory Report at c_bands before calling an iterative solver
           300 MiB given to the printing process from OS
             0 MiB allocation reported by mallinfo(arena+hblkhd)
          2566 MiB available memory on the node where the printing process lives
------------------
     ethr =  4.45E-07,  avg # of iterations =  4.5

     negative rho (up, down):  0.000E+00 1.812E-08

     total cpu time spent up to now is       97.3 secs

     total energy              =    -260.68571539 Ry
     estimated scf accuracy    <       0.00002743 Ry

     total magnetization       =     1.00 Bohr mag/cell
     absolute magnetization    =     1.06 Bohr mag/cell

     iteration #  8     ecut=   100.00 Ry     beta= 0.70
     Davidson diagonalization with overlap

---- Real-time Memory Report at c_bands before calling an iterative solver
           300 MiB given to the printing process from OS
             0 MiB allocation reported by mallinfo(arena+hblkhd)
          2515 MiB available memory on the node where the printing process lives
------------------
     ethr =  8.31E-08,  avg # of iterations =  4.0

     total cpu time spent up to now is      101.2 secs

     total energy              =    -260.68572432 Ry
     estimated scf accuracy    <       0.00000140 Ry

     total magnetization       =     1.00 Bohr mag/cell
     absolute magnetization    =     1.06 Bohr mag/cell

     iteration #  9     ecut=   100.00 Ry     beta= 0.70
     Davidson diagonalization with overlap

---- Real-time Memory Report at c_bands before calling an iterative solver
           300 MiB given to the printing process from OS
             0 MiB allocation reported by mallinfo(arena+hblkhd)
          2452 MiB available memory on the node where the printing process lives
------------------
     ethr =  4.26E-09,  avg # of iterations =  4.5

     total cpu time spent up to now is      105.4 secs

     total energy              =    -260.68572406 Ry
     estimated scf accuracy    <       0.00000170 Ry

     total magnetization       =     1.00 Bohr mag/cell
     absolute magnetization    =     1.06 Bohr mag/cell

     iteration # 10     ecut=   100.00 Ry     beta= 0.70
     Davidson diagonalization with overlap

---- Real-time Memory Report at c_bands before calling an iterative solver
           300 MiB given to the printing process from OS
             0 MiB allocation reported by mallinfo(arena+hblkhd)
          2398 MiB available memory on the node where the printing process lives
------------------
     ethr =  4.26E-09,  avg # of iterations =  3.5

     total cpu time spent up to now is      109.2 secs

     total energy              =    -260.68572439 Ry
     estimated scf accuracy    <       0.00000002 Ry

     total magnetization       =     1.00 Bohr mag/cell
     absolute magnetization    =     1.06 Bohr mag/cell

     iteration # 11     ecut=   100.00 Ry     beta= 0.70
     Davidson diagonalization with overlap

---- Real-time Memory Report at c_bands before calling an iterative solver
           300 MiB given to the printing process from OS
             0 MiB allocation reported by mallinfo(arena+hblkhd)
          2394 MiB available memory on the node where the printing process lives
------------------
     ethr =  5.53E-11,  avg # of iterations =  5.0

     total cpu time spent up to now is      113.9 secs

     total energy              =    -260.68572441 Ry
     estimated scf accuracy    <       0.00000001 Ry

     total magnetization       =     1.00 Bohr mag/cell
     absolute magnetization    =     1.06 Bohr mag/cell

     iteration # 12     ecut=   100.00 Ry     beta= 0.70
     Davidson diagonalization with overlap

---- Real-time Memory Report at c_bands before calling an iterative solver
           300 MiB given to the printing process from OS
             0 MiB allocation reported by mallinfo(arena+hblkhd)
          2348 MiB available memory on the node where the printing process lives
------------------
     ethr =  3.18E-11,  avg # of iterations =  3.0

     Magnetic moment per site  (integrated on atomic sphere of radius R)
     atom   1 (R=0.049)  charge=  4.8528  magn=  0.1383
     atom   2 (R=0.049)  charge=  4.1105  magn= -0.0039
     atom   3 (R=0.049)  charge=  4.1103  magn= -0.0040
     atom   4 (R=0.049)  charge=  4.1103  magn= -0.0040

     total cpu time spent up to now is      117.1 secs

     End of self-consistent calculation

 ------ SPIN UP ------------


          k = 0.0000 0.0000 0.0000 (113801 PWs)   bands (ev):

   -61.0982 -40.0725 -40.0624 -36.7940 -29.3370 -27.0733 -27.0710 -12.7910
   -12.7885 -11.9033 -11.8944 -11.3128 -10.7524 -10.4937  -9.3038  -9.3008
    -3.1541

     occupation numbers 
     1.0000   1.0000   1.0000   1.0000   1.0000   1.0000   1.0000   1.0000
     1.0000   1.0000   1.0000   1.0000   1.0000   1.0000   1.0000   1.0000
     1.0000

 ------ SPIN DOWN ----------


          k = 0.0000 0.0000 0.0000 (113801 PWs)   bands (ev):

   -60.6962 -39.8164 -39.8059 -36.2379 -29.3158 -26.9915 -26.9891 -12.7375
   -12.7350 -11.8481 -11.8394 -11.2023 -10.7194 -10.4960  -9.2573  -9.2542
    -1.8839

     occupation numbers 
     1.0000   1.0000   1.0000   1.0000   1.0000   1.0000   1.0000   1.0000
     1.0000   1.0000   1.0000   1.0000   1.0000   1.0000   1.0000   1.0000
     0.0000

     highest occupied, lowest unoccupied level (ev):    -3.1541   -1.8839

!    total energy              =    -260.68572441 Ry
     estimated scf accuracy    <          1.9E-09 Ry

     The total energy is the sum of the following terms:
     one-electron contribution =    -605.57789886 Ry
     hartree contribution      =     304.25878236 Ry
     xc contribution           =     -43.27024732 Ry
     ewald contribution        =      83.90363940 Ry

     total magnetization       =     1.00 Bohr mag/cell
     absolute magnetization    =     1.06 Bohr mag/cell

     convergence has been achieved in  12 iterations

     Forces acting on atoms (cartesian axes, Ry/au):

     atom    1 type  1   force =     0.00000000   -0.00265861    0.00000000
     atom    2 type  2   force =     0.00000000    0.93304927    0.00000000
     atom    3 type  2   force =     0.80492522   -0.46519533    0.00000000
     atom    4 type  2   force =    -0.80492522   -0.46519533    0.00000000
     The non-local contrib.  to forces
     atom    1 type  1   force =     0.00000000    0.00123866    0.00000000
     atom    2 type  2   force =     0.00000000   -0.39258753    0.00000000
     atom    3 type  2   force =    -0.34217341    0.19935688   -0.00000000
     atom    4 type  2   force =     0.34217341    0.19935688    0.00000000
     The ionic contribution  to forces
     atom    1 type  1   force =     0.00000000    0.03933690    0.00000000
     atom    2 type  2   force =    -0.00000000   28.63118235   -0.00000000
     atom    3 type  2   force =    24.78503128  -14.33525962    0.00000000
     atom    4 type  2   force =   -24.78503128  -14.33525962   -0.00000000
     The local contribution  to forces
     atom    1 type  1   force =     0.00000000   -0.04330094    0.00000000
     atom    2 type  2   force =    -0.00000000  -27.30569690    0.00000000
     atom    3 type  2   force =   -23.63800792   13.67068455    0.00000000
     atom    4 type  2   force =    23.63800792   13.67068455    0.00000000
     The core correction contribution to forces
     atom    1 type  1   force =     0.00000000    0.00000000    0.00000000
     atom    2 type  2   force =     0.00000000    0.00000000    0.00000000
     atom    3 type  2   force =     0.00000000    0.00000000    0.00000000
     atom    4 type  2   force =     0.00000000    0.00000000    0.00000000
     The Hubbard contrib.    to forces
     atom    1 type  1   force =     0.00000000    0.00000000    0.00000000
     atom    2 type  2   force =     0.00000000    0.00000000    0.00000000
     atom    3 type  2   force =     0.00000000    0.00000000    0.00000000
     atom    4 type  2   force =     0.00000000    0.00000000    0.00000000
     The SCF correction term to forces
     atom    1 type  1   force =     0.00000000    0.00000165    0.00000000
     atom    2 type  2   force =     0.00000000    0.00008623   -0.00000000
     atom    3 type  2   force =     0.00007527   -0.00004226    0.00000000
     atom    4 type  2   force =    -0.00007527   -0.00004226    0.00000000

     Total force =     1.612207     Total SCF correction =     0.000149
     Energy error            =      3.0E+00 Ry
     Gradient error          =      9.3E-01 Ry/Bohr

     number of scf cycles    =   2
     number of bfgs steps    =   1

     energy             old  =    -257.6543236120 Ry
     energy             new  =    -260.6857244133 Ry

     CASE: energy            _new < energy            _old

     new trust radius        =       0.1819559107 bohr
     new conv_thr            =       0.0000000100 Ry


ATOMIC_POSITIONS (crystal)
Ti            0.0000000000       -0.0002243339        0.0000000000
F             0.0000000000        0.1557341050        0.0000000000
F             0.1345775514       -0.0777548855        0.0000000000
F            -0.1345775514       -0.0777548855        0.0000000000



     Writing config-only to output data dir ./scratch/tif3.save/
     NEW-OLD atomic charge density approx. for the potential

     negative rho (up, down):  2.336E-04 2.336E-04
     Generating pointlists ...

     total cpu time spent up to now is      118.5 secs

     Self-consistent Calculation

     iteration #  1     ecut=   100.00 Ry     beta= 0.70
     Davidson diagonalization with overlap

---- Real-time Memory Report at c_bands before calling an iterative solver
           300 MiB given to the printing process from OS
             0 MiB allocation reported by mallinfo(arena+hblkhd)
          3334 MiB available memory on the node where the printing process lives
------------------
     ethr =  1.00E-06,  avg # of iterations = 11.5

     negative rho (up, down):  6.266E-06 1.528E-04

     total cpu time spent up to now is      128.1 secs

     total energy              =    -261.03077884 Ry
     estimated scf accuracy    <       0.05631816 Ry

     total magnetization       =     1.00 Bohr mag/cell
     absolute magnetization    =     1.06 Bohr mag/cell

     iteration #  2     ecut=   100.00 Ry     beta= 0.70
     Davidson diagonalization with overlap

---- Real-time Memory Report at c_bands before calling an iterative solver
           300 MiB given to the printing process from OS
             0 MiB allocation reported by mallinfo(arena+hblkhd)
          2813 MiB available memory on the node where the printing process lives
------------------
     ethr =  1.71E-04,  avg # of iterations =  5.0

     negative rho (up, down):  4.518E-06 1.096E-04

     total cpu time spent up to now is      133.1 secs

     total energy              =    -261.03073996 Ry
     estimated scf accuracy    <       0.16275648 Ry

     total magnetization       =     1.00 Bohr mag/cell
     absolute magnetization    =     1.07 Bohr mag/cell

     iteration #  3     ecut=   100.00 Ry     beta= 0.70
     Davidson diagonalization with overlap

---- Real-time Memory Report at c_bands before calling an iterative solver
           300 MiB given to the printing process from OS
             0 MiB allocation reported by mallinfo(arena+hblkhd)
          2722 MiB available memory on the node where the printing process lives
------------------
     ethr =  1.71E-04,  avg # of iterations =  5.0

     negative rho (up, down):  1.625E-06 4.690E-05

     total cpu time spent up to now is      138.9 secs

     total energy              =    -261.06103270 Ry
     estimated scf accuracy    <       0.00116517 Ry

     total magnetization       =     1.00 Bohr mag/cell
     absolute magnetization    =     1.07 Bohr mag/cell

     iteration #  4     ecut=   100.00 Ry     beta= 0.70
     Davidson diagonalization with overlap

---- Real-time Memory Report at c_bands before calling an iterative solver
           300 MiB given to the printing process from OS
             0 MiB allocation reported by mallinfo(arena+hblkhd)
          2165 MiB available memory on the node where the printing process lives
------------------
     ethr =  3.53E-06,  avg # of iterations =  5.0

     negative rho (up, down):  1.341E-08 8.056E-06

     total cpu time spent up to now is      145.9 secs

     total energy              =    -261.06185932 Ry
     estimated scf accuracy    <       0.00092221 Ry

     total magnetization       =     1.00 Bohr mag/cell
     absolute magnetization    =     1.07 Bohr mag/cell

     iteration #  5     ecut=   100.00 Ry     beta= 0.70
     Davidson diagonalization with overlap

---- Real-time Memory Report at c_bands before calling an iterative solver
           300 MiB given to the printing process from OS
             0 MiB allocation reported by mallinfo(arena+hblkhd)
          1627 MiB available memory on the node where the printing process lives
------------------
     ethr =  2.79E-06,  avg # of iterations =  2.5

     negative rho (up, down):  7.947E-11 5.935E-07

     total cpu time spent up to now is      150.9 secs

     total energy              =    -261.06195600 Ry
     estimated scf accuracy    <       0.00007223 Ry

     total magnetization       =     1.00 Bohr mag/cell
     absolute magnetization    =     1.07 Bohr mag/cell

     iteration #  6     ecut=   100.00 Ry     beta= 0.70
     Davidson diagonalization with overlap

---- Real-time Memory Report at c_bands before calling an iterative solver
           300 MiB given to the printing process from OS
             0 MiB allocation reported by mallinfo(arena+hblkhd)
          1656 MiB available memory on the node where the printing process lives
------------------
     ethr =  2.19E-07,  avg # of iterations =  5.5

     negative rho (up, down):  0.000E+00 1.811E-07

     total cpu time spent up to now is      157.7 secs

     total energy              =    -261.06200826 Ry
     estimated scf accuracy    <       0.00020176 Ry

     total magnetization       =     1.00 Bohr mag/cell
     absolute magnetization    =     1.07 Bohr mag/cell

     iteration #  7     ecut=   100.00 Ry     beta= 0.70
     Davidson diagonalization with overlap

---- Real-time Memory Report at c_bands before calling an iterative solver
           300 MiB given to the printing process from OS
             0 MiB allocation reported by mallinfo(arena+hblkhd)
          1634 MiB available memory on the node where the printing process lives
------------------
     ethr =  2.19E-07,  avg # of iterations =  4.0

     negative rho (up, down):  0.000E+00 5.078E-08

     total cpu time spent up to now is      163.4 secs

     total energy              =    -261.06202330 Ry
     estimated scf accuracy    <       0.00001530 Ry

     total magnetization       =     1.00 Bohr mag/cell
     absolute magnetization    =     1.07 Bohr mag/cell

     iteration #  8     ecut=   100.00 Ry     beta= 0.70
     Davidson diagonalization with overlap

---- Real-time Memory Report at c_bands before calling an iterative solver
           300 MiB given to the printing process from OS
             0 MiB allocation reported by mallinfo(arena+hblkhd)
          1606 MiB available memory on the node where the printing process lives
------------------
     ethr =  4.64E-08,  avg # of iterations =  3.0

     total cpu time spent up to now is      168.4 secs

     total energy              =    -261.06202605 Ry
     estimated scf accuracy    <       0.00000057 Ry

     total magnetization       =     1.00 Bohr mag/cell
     absolute magnetization    =     1.07 Bohr mag/cell

     iteration #  9     ecut=   100.00 Ry     beta= 0.70
     Davidson diagonalization with overlap

---- Real-time Memory Report at c_bands before calling an iterative solver
           300 MiB given to the printing process from OS
             0 MiB allocation reported by mallinfo(arena+hblkhd)
          1895 MiB available memory on the node where the printing process lives
------------------
     ethr =  1.74E-09,  avg # of iterations =  5.0

     total cpu time spent up to now is      174.2 secs

     total energy              =    -261.06202669 Ry
     estimated scf accuracy    <       0.00000029 Ry

     total magnetization       =     1.00 Bohr mag/cell
     absolute magnetization    =     1.07 Bohr mag/cell

     iteration # 10     ecut=   100.00 Ry     beta= 0.70
     Davidson diagonalization with overlap

---- Real-time Memory Report at c_bands before calling an iterative solver
           300 MiB given to the printing process from OS
             0 MiB allocation reported by mallinfo(arena+hblkhd)
          1943 MiB available memory on the node where the printing process lives
------------------
     ethr =  8.88E-10,  avg # of iterations =  1.5

     total cpu time spent up to now is      178.5 secs

     total energy              =    -261.06202667 Ry
     estimated scf accuracy    <       0.00000012 Ry

     total magnetization       =     1.00 Bohr mag/cell
     absolute magnetization    =     1.07 Bohr mag/cell

     iteration # 11     ecut=   100.00 Ry     beta= 0.70
     Davidson diagonalization with overlap

---- Real-time Memory Report at c_bands before calling an iterative solver
           300 MiB given to the printing process from OS
             0 MiB allocation reported by mallinfo(arena+hblkhd)
          1901 MiB available memory on the node where the printing process lives
------------------
     ethr =  3.54E-10,  avg # of iterations =  4.0

     Magnetic moment per site  (integrated on atomic sphere of radius R)
     atom   1 (R=0.049)  charge=  4.7973  magn=  0.1759
     atom   2 (R=0.049)  charge=  4.0722  magn= -0.0076
     atom   3 (R=0.049)  charge=  4.0733  magn= -0.0075
     atom   4 (R=0.049)  charge=  4.0733  magn= -0.0075

     total cpu time spent up to now is      183.1 secs

     End of self-consistent calculation

 ------ SPIN UP ------------


          k = 0.0000 0.0000 0.0000 (113801 PWs)   bands (ev):

   -61.5405 -39.4479 -39.3937 -37.5303 -29.1662 -27.6656 -27.6648 -11.9766
   -11.9580 -11.1990 -11.1494 -11.1446 -10.4034 -10.0800  -9.6114  -9.6038
    -3.6017

     occupation numbers 
     1.0000   1.0000   1.0000   1.0000   1.0000   1.0000   1.0000   1.0000
     1.0000   1.0000   1.0000   1.0000   1.0000   1.0000   1.0000   1.0000
     1.0000

 ------ SPIN DOWN ----------


          k = 0.0000 0.0000 0.0000 (113801 PWs)   bands (ev):

   -61.0284 -39.1057 -39.0471 -36.8027 -29.1600 -27.6052 -27.6050 -11.9257
   -11.9063 -11.1588 -11.1052 -11.0530 -10.3833 -10.0894  -9.5850  -9.5780
    -2.1730

     occupation numbers 
     1.0000   1.0000   1.0000   1.0000   1.0000   1.0000   1.0000   1.0000
     1.0000   1.0000   1.0000   1.0000   1.0000   1.0000   1.0000   1.0000
     0.0000

     highest occupied, lowest unoccupied level (ev):    -3.6017   -2.1730

!    total energy              =    -261.06202668 Ry
     estimated scf accuracy    <          6.1E-09 Ry

     The total energy is the sum of the following terms:
     one-electron contribution =    -578.23382181 Ry
     hartree contribution      =     290.52447609 Ry
     xc contribution           =     -42.91344373 Ry
     ewald contribution        =      69.56076276 Ry

     total magnetization       =     1.00 Bohr mag/cell
     absolute magnetization    =     1.07 Bohr mag/cell

     convergence has been achieved in  11 iterations

     Forces acting on atoms (cartesian axes, Ry/au):

     atom    1 type  1   force =     0.00000000    0.02029687    0.00000000
     atom    2 type  2   force =     0.00000000    0.49319458    0.00000000
     atom    3 type  2   force =     0.44437009   -0.25674572    0.00000000
     atom    4 type  2   force =    -0.44437009   -0.25674572    0.00000000
     The non-local contrib.  to forces
     atom    1 type  1   force =     0.00000000   -0.01371036    0.00000000
     atom    2 type  2   force =     0.00000000   -0.76751724    0.00000000
     atom    3 type  2   force =    -0.65308612    0.37325892    0.00000000
     atom    4 type  2   force =     0.65308612    0.37325892    0.00000000
     The ionic contribution  to forces
     atom    1 type  1   force =    -0.00000000    0.17313024   -0.00000000
     atom    2 type  2   force =     0.00000000   24.98058402    0.00000000
     atom    3 type  2   force =    21.79957727  -12.57685713    0.00000000
     atom    4 type  2   force =   -21.79957727  -12.57685713   -0.00000000
     The local contribution  to forces
     atom    1 type  1   force =    -0.00000000   -0.13889804    0.00000000
     atom    2 type  2   force =     0.00000000  -23.71947476    0.00000000
     atom    3 type  2   force =   -20.70201174   11.94706445    0.00000000
     atom    4 type  2   force =    20.70201174   11.94706445    0.00000000
     The core correction contribution to forces
     atom    1 type  1   force =     0.00000000    0.00000000    0.00000000
     atom    2 type  2   force =     0.00000000    0.00000000    0.00000000
     atom    3 type  2   force =     0.00000000    0.00000000    0.00000000
     atom    4 type  2   force =     0.00000000    0.00000000    0.00000000
     The Hubbard contrib.    to forces
     atom    1 type  1   force =     0.00000000    0.00000000    0.00000000
     atom    2 type  2   force =     0.00000000    0.00000000    0.00000000
     atom    3 type  2   force =     0.00000000    0.00000000    0.00000000
     atom    4 type  2   force =     0.00000000    0.00000000    0.00000000
     The SCF correction term to forces
     atom    1 type  1   force =     0.00000000    0.00005038    0.00000000
     atom    2 type  2   force =    -0.00000000   -0.00012208    0.00000000
     atom    3 type  2   force =    -0.00010932    0.00006339    0.00000000
     atom    4 type  2   force =     0.00010932    0.00006339    0.00000000

     Total force =     0.877735     Total SCF correction =     0.000222
     Energy error            =      3.8E-01 Ry
     Gradient error          =      4.9E-01 Ry/Bohr

     number of scf cycles    =   3
     number of bfgs steps    =   2

     energy             old  =    -260.6857244133 Ry
     energy             new  =    -261.0620266848 Ry

     CASE: energy            _new < energy            _old

     new trust radius        =       0.2001515017 bohr
     new conv_thr            =       0.0000000100 Ry


ATOMIC_POSITIONS (crystal)
Ti            0.0000000000        0.0017033089        0.0000000000
F             0.0000000000        0.1644041715        0.0000000000
F             0.1437483371       -0.0830537402        0.0000000000
F            -0.1437483371       -0.0830537402        0.0000000000



     Writing config-only to output data dir ./scratch/tif3.save/
     NEW-OLD atomic charge density approx. for the potential

     negative rho (up, down):  3.178E-04 3.178E-04
     Generating pointlists ...

     total cpu time spent up to now is      184.9 secs

     Self-consistent Calculation

     iteration #  1     ecut=   100.00 Ry     beta= 0.70
     Davidson diagonalization with overlap

---- Real-time Memory Report at c_bands before calling an iterative solver
           300 MiB given to the printing process from OS
             0 MiB allocation reported by mallinfo(arena+hblkhd)
          3232 MiB available memory on the node where the printing process lives
------------------
     ethr =  1.00E-06,  avg # of iterations = 17.0

     negative rho (up, down):  1.796E-05 1.638E-04

     total cpu time spent up to now is      202.8 secs

     total energy              =    -261.23220546 Ry
     estimated scf accuracy    <       0.04868559 Ry

     total magnetization       =     1.00 Bohr mag/cell
     absolute magnetization    =     1.07 Bohr mag/cell

     iteration #  2     ecut=   100.00 Ry     beta= 0.70
     Davidson diagonalization with overlap

---- Real-time Memory Report at c_bands before calling an iterative solver
           300 MiB given to the printing process from OS
             0 MiB allocation reported by mallinfo(arena+hblkhd)
          3670 MiB available memory on the node where the printing process lives
------------------
     ethr =  1.48E-04,  avg # of iterations =  6.0

     negative rho (up, down):  1.318E-05 1.201E-04

     total cpu time spent up to now is      209.1 secs

     total energy              =    -261.22687215 Ry
     estimated scf accuracy    <       0.17226959 Ry

     total magnetization       =     1.00 Bohr mag/cell
     absolute magnetization    =     1.09 Bohr mag/cell

     iteration #  3     ecut=   100.00 Ry     beta= 0.70
     Davidson diagonalization with overlap

---- Real-time Memory Report at c_bands before calling an iterative solver
           300 MiB given to the printing process from OS
             0 MiB allocation reported by mallinfo(arena+hblkhd)
          3451 MiB available memory on the node where the printing process lives
------------------
     ethr =  1.48E-04,  avg # of iterations =  5.0

     negative rho (up, down):  5.116E-06 5.196E-05

     total cpu time spent up to now is      215.0 secs

     total energy              =    -261.25830447 Ry
     estimated scf accuracy    <       0.00108962 Ry

     total magnetization       =     1.00 Bohr mag/cell
     absolute magnetization    =     1.08 Bohr mag/cell

     iteration #  4     ecut=   100.00 Ry     beta= 0.70
     Davidson diagonalization with overlap

---- Real-time Memory Report at c_bands before calling an iterative solver
           300 MiB given to the printing process from OS
             0 MiB allocation reported by mallinfo(arena+hblkhd)
          3844 MiB available memory on the node where the printing process lives
------------------
     ethr =  3.30E-06,  avg # of iterations =  5.0

     negative rho (up, down):  4.921E-07 1.183E-05

     total cpu time spent up to now is      221.3 secs

     total energy              =    -261.25912559 Ry
     estimated scf accuracy    <       0.00098725 Ry

     total magnetization       =     1.00 Bohr mag/cell
     absolute magnetization    =     1.08 Bohr mag/cell

     iteration #  5     ecut=   100.00 Ry     beta= 0.70
     Davidson diagonalization with overlap

---- Real-time Memory Report at c_bands before calling an iterative solver
           300 MiB given to the printing process from OS
             0 MiB allocation reported by mallinfo(arena+hblkhd)
          4091 MiB available memory on the node where the printing process lives
------------------
     ethr =  2.99E-06,  avg # of iterations =  2.5

     negative rho (up, down):  8.004E-08 7.019E-07

     total cpu time spent up to now is      225.9 secs

     total energy              =    -261.25915636 Ry
     estimated scf accuracy    <       0.00014763 Ry

     total magnetization       =     1.00 Bohr mag/cell
     absolute magnetization    =     1.09 Bohr mag/cell

     iteration #  6     ecut=   100.00 Ry     beta= 0.70
     Davidson diagonalization with overlap

---- Real-time Memory Report at c_bands before calling an iterative solver
           300 MiB given to the printing process from OS
             0 MiB allocation reported by mallinfo(arena+hblkhd)
          4352 MiB available memory on the node where the printing process lives
------------------
     ethr =  4.47E-07,  avg # of iterations =  5.5

     negative rho (up, down):  3.279E-09 1.981E-07

     total cpu time spent up to now is      232.3 secs

     total energy              =    -261.25924851 Ry
     estimated scf accuracy    <       0.00029238 Ry

     total magnetization       =     1.00 Bohr mag/cell
     absolute magnetization    =     1.09 Bohr mag/cell

     iteration #  7     ecut=   100.00 Ry     beta= 0.70
     Davidson diagonalization with overlap

---- Real-time Memory Report at c_bands before calling an iterative solver
           300 MiB given to the printing process from OS
             0 MiB allocation reported by mallinfo(arena+hblkhd)
          4709 MiB available memory on the node where the printing process lives
------------------
     ethr =  4.47E-07,  avg # of iterations =  3.0

     negative rho (up, down):  4.648E-11 7.400E-08

     total cpu time spent up to now is      237.1 secs

     total energy              =    -261.25926157 Ry
     estimated scf accuracy    <       0.00004963 Ry

     total magnetization       =     1.00 Bohr mag/cell
     absolute magnetization    =     1.09 Bohr mag/cell

     iteration #  8     ecut=   100.00 Ry     beta= 0.70
     Davidson diagonalization with overlap

---- Real-time Memory Report at c_bands before calling an iterative solver
           300 MiB given to the printing process from OS
             0 MiB allocation reported by mallinfo(arena+hblkhd)
          4767 MiB available memory on the node where the printing process lives
------------------
     ethr =  1.50E-07,  avg # of iterations =  4.0

     total cpu time spent up to now is      242.0 secs

     total energy              =    -261.25927162 Ry
     estimated scf accuracy    <       0.00000167 Ry

     total magnetization       =     1.00 Bohr mag/cell
     absolute magnetization    =     1.09 Bohr mag/cell

     iteration #  9     ecut=   100.00 Ry     beta= 0.70
     Davidson diagonalization with overlap

---- Real-time Memory Report at c_bands before calling an iterative solver
           300 MiB given to the printing process from OS
             0 MiB allocation reported by mallinfo(arena+hblkhd)
          4697 MiB available memory on the node where the printing process lives
------------------
     ethr =  5.07E-09,  avg # of iterations =  4.5

     total cpu time spent up to now is      247.5 secs

     total energy              =    -261.25927303 Ry
     estimated scf accuracy    <       0.00000077 Ry

     total magnetization       =     1.00 Bohr mag/cell
     absolute magnetization    =     1.09 Bohr mag/cell

     iteration # 10     ecut=   100.00 Ry     beta= 0.70
     Davidson diagonalization with overlap

---- Real-time Memory Report at c_bands before calling an iterative solver
           300 MiB given to the printing process from OS
             0 MiB allocation reported by mallinfo(arena+hblkhd)
          5016 MiB available memory on the node where the printing process lives
------------------
     ethr =  2.35E-09,  avg # of iterations =  1.0

     total cpu time spent up to now is      251.6 secs

     total energy              =    -261.25927284 Ry
     estimated scf accuracy    <       0.00000051 Ry

     total magnetization       =     1.00 Bohr mag/cell
     absolute magnetization    =     1.09 Bohr mag/cell

     iteration # 11     ecut=   100.00 Ry     beta= 0.70
     Davidson diagonalization with overlap

---- Real-time Memory Report at c_bands before calling an iterative solver
           300 MiB given to the printing process from OS
             0 MiB allocation reported by mallinfo(arena+hblkhd)
          5134 MiB available memory on the node where the printing process lives
------------------
     ethr =  1.54E-09,  avg # of iterations =  4.0

     Magnetic moment per site  (integrated on atomic sphere of radius R)
     atom   1 (R=0.049)  charge=  4.7592  magn=  0.2126
     atom   2 (R=0.049)  charge=  4.0494  magn= -0.0099
     atom   3 (R=0.049)  charge=  4.0386  magn= -0.0104
     atom   4 (R=0.049)  charge=  4.0386  magn= -0.0104

     total cpu time spent up to now is      255.6 secs

     End of self-consistent calculation

 ------ SPIN UP ------------


          k = 0.0000 0.0000 0.0000 (113801 PWs)   bands (ev):

   -62.1451 -39.3747 -39.1569 -38.2812 -28.8846 -27.9850 -27.9090 -11.3538
   -11.3307 -10.8876 -10.7807 -10.3971  -9.9933  -9.7946  -9.6292  -9.5907
    -4.1079

     occupation numbers 
     1.0000   1.0000   1.0000   1.0000   1.0000   1.0000   1.0000   1.0000
     1.0000   1.0000   1.0000   1.0000   1.0000   1.0000   1.0000   1.0000
     1.0000

 ------ SPIN DOWN ----------


          k = 0.0000 0.0000 0.0000 (113801 PWs)   bands (ev):

   -61.5294 -38.9555 -38.7047 -37.3869 -28.8895 -27.9535 -27.8820 -11.3076
   -11.2705 -10.8089 -10.7540 -10.3749  -9.9861  -9.7953  -9.6243  -9.5953
    -2.5072

     occupation numbers 
     1.0000   1.0000   1.0000   1.0000   1.0000   1.0000   1.0000   1.0000
     1.0000   1.0000   1.0000   1.0000   1.0000   1.0000   1.0000   1.0000
     0.0000

     highest occupied, lowest unoccupied level (ev):    -4.1079   -2.5072

!    total energy              =    -261.25927293 Ry
     estimated scf accuracy    <          9.8E-09 Ry

     The total energy is the sum of the following terms:
     one-electron contribution =    -552.60422073 Ry
     hartree contribution      =     277.65513562 Ry
     xc contribution           =     -42.62421178 Ry
     ewald contribution        =      56.31402396 Ry

     total magnetization       =     1.00 Bohr mag/cell
     absolute magnetization    =     1.09 Bohr mag/cell

     convergence has been achieved in  11 iterations

     Forces acting on atoms (cartesian axes, Ry/au):

     atom    1 type  1   force =     0.00000000   -0.08817354    0.00000000
     atom    2 type  2   force =     0.00000000    0.28262650    0.00000000
     atom    3 type  2   force =     0.17027326   -0.09722648    0.00000000
     atom    4 type  2   force =    -0.17027326   -0.09722648    0.00000000
     The non-local contrib.  to forces
     atom    1 type  1   force =     0.00000000    0.05761761    0.00000000
     atom    2 type  2   force =     0.00000000   -1.00108591    0.00000000
     atom    3 type  2   force =    -0.93247762    0.57201916    0.00000000
     atom    4 type  2   force =     0.93247762    0.57201916    0.00000000
     The ionic contribution  to forces
     atom    1 type  1   force =     0.00000000   -0.57479653    0.00000000
     atom    2 type  2   force =     0.00000000   22.60296479   -0.00000000
     atom    3 type  2   force =    18.72119778  -11.01408413    0.00000000
     atom    4 type  2   force =   -18.72119778  -11.01408413   -0.00000000
     The local contribution  to forces
     atom    1 type  1   force =    -0.00000000    0.42876954    0.00000000
     atom    2 type  2   force =    -0.00000000  -21.31928043    0.00000000
     atom    3 type  2   force =   -17.61831293   10.34456520    0.00000000
     atom    4 type  2   force =    17.61831293   10.34456520    0.00000000
     The core correction contribution to forces
     atom    1 type  1   force =     0.00000000    0.00000000    0.00000000
     atom    2 type  2   force =     0.00000000    0.00000000    0.00000000
     atom    3 type  2   force =     0.00000000    0.00000000    0.00000000
     atom    4 type  2   force =     0.00000000    0.00000000    0.00000000
     The Hubbard contrib.    to forces
     atom    1 type  1   force =     0.00000000    0.00000000    0.00000000
     atom    2 type  2   force =     0.00000000    0.00000000    0.00000000
     atom    3 type  2   force =     0.00000000    0.00000000    0.00000000
     atom    4 type  2   force =     0.00000000    0.00000000    0.00000000
     The SCF correction term to forces
     atom    1 type  1   force =     0.00000000    0.00003513    0.00000000
     atom    2 type  2   force =     0.00000000   -0.00017266   -0.00000000
     atom    3 type  2   force =    -0.00013398    0.00007260    0.00000000
     atom    4 type  2   force =     0.00013398    0.00007260    0.00000000

     Total force =     0.405641     Total SCF correction =     0.000278
     Energy error            =      2.0E-01 Ry
     Gradient error          =      2.8E-01 Ry/Bohr

     number of scf cycles    =   4
     number of bfgs steps    =   3

     energy             old  =    -261.0620266848 Ry
     energy             new  =    -261.2592729254 Ry

     CASE: energy            _new < energy            _old

     new trust radius        =       0.2597452470 bohr
     new conv_thr            =       0.0000000100 Ry


ATOMIC_POSITIONS (crystal)
Ti            0.0000000000       -0.0054009857        0.0000000000
F             0.0000000000        0.1781492980        0.0000000000
F             0.1496784695       -0.0863741561        0.0000000000
F            -0.1496784695       -0.0863741561        0.0000000000



     Writing config-only to output data dir ./scratch/tif3.save/
     NEW-OLD atomic charge density approx. for the potential

     negative rho (up, down):  3.368E-04 3.368E-04
     Generating pointlists ...

     total cpu time spent up to now is      257.1 secs

     Self-consistent Calculation

     iteration #  1     ecut=   100.00 Ry     beta= 0.70
     Davidson diagonalization with overlap

---- Real-time Memory Report at c_bands before calling an iterative solver
           300 MiB given to the printing process from OS
             0 MiB allocation reported by mallinfo(arena+hblkhd)
          6427 MiB available memory on the node where the printing process lives
------------------
     c_bands:  1 eigenvalues not converged
     ethr =  1.00E-06,  avg # of iterations = 18.5

     negative rho (up, down):  4.443E-05 1.798E-04

     total cpu time spent up to now is      272.9 secs

     total energy              =    -261.29929224 Ry
     estimated scf accuracy    <       0.03702041 Ry

     total magnetization       =     1.00 Bohr mag/cell
     absolute magnetization    =     1.09 Bohr mag/cell

     iteration #  2     ecut=   100.00 Ry     beta= 0.70
     Davidson diagonalization with overlap

---- Real-time Memory Report at c_bands before calling an iterative solver
           300 MiB given to the printing process from OS
             0 MiB allocation reported by mallinfo(arena+hblkhd)
          6033 MiB available memory on the node where the printing process lives
------------------
     ethr =  1.12E-04,  avg # of iterations =  6.0

     negative rho (up, down):  3.214E-05 1.303E-04

     total cpu time spent up to now is      278.2 secs

     total energy              =    -261.29605804 Ry
     estimated scf accuracy    <       0.12202785 Ry

     total magnetization       =     1.00 Bohr mag/cell
     absolute magnetization    =     1.11 Bohr mag/cell

     iteration #  3     ecut=   100.00 Ry     beta= 0.70
     Davidson diagonalization with overlap

---- Real-time Memory Report at c_bands before calling an iterative solver
           300 MiB given to the printing process from OS
             0 MiB allocation reported by mallinfo(arena+hblkhd)
          5977 MiB available memory on the node where the printing process lives
------------------
     ethr =  1.12E-04,  avg # of iterations =  5.0

     negative rho (up, down):  1.021E-05 4.720E-05

     total cpu time spent up to now is      282.9 secs

     total energy              =    -261.31778645 Ry
     estimated scf accuracy    <       0.00158668 Ry

     total magnetization       =     1.00 Bohr mag/cell
     absolute magnetization    =     1.12 Bohr mag/cell

     iteration #  4     ecut=   100.00 Ry     beta= 0.70
     Davidson diagonalization with overlap

---- Real-time Memory Report at c_bands before calling an iterative solver
           300 MiB given to the printing process from OS
             0 MiB allocation reported by mallinfo(arena+hblkhd)
          5914 MiB available memory on the node where the printing process lives
------------------
     ethr =  4.81E-06,  avg # of iterations =  4.0

     negative rho (up, down):  9.796E-07 8.085E-06

     total cpu time spent up to now is      286.9 secs

     total energy              =    -261.31812617 Ry
     estimated scf accuracy    <       0.00023286 Ry

     total magnetization       =     1.00 Bohr mag/cell
     absolute magnetization    =     1.11 Bohr mag/cell

     iteration #  5     ecut=   100.00 Ry     beta= 0.70
     Davidson diagonalization with overlap

---- Real-time Memory Report at c_bands before calling an iterative solver
           300 MiB given to the printing process from OS
             0 MiB allocation reported by mallinfo(arena+hblkhd)
          5865 MiB available memory on the node where the printing process lives
------------------
     ethr =  7.06E-07,  avg # of iterations =  4.0

     negative rho (up, down):  3.666E-10 1.777E-07

     total cpu time spent up to now is      291.0 secs

     total energy              =    -261.31820059 Ry
     estimated scf accuracy    <       0.00000829 Ry

     total magnetization       =     1.00 Bohr mag/cell
     absolute magnetization    =     1.11 Bohr mag/cell

     iteration #  6     ecut=   100.00 Ry     beta= 0.70
     Davidson diagonalization with overlap

---- Real-time Memory Report at c_bands before calling an iterative solver
           300 MiB given to the printing process from OS
             0 MiB allocation reported by mallinfo(arena+hblkhd)
          5805 MiB available memory on the node where the printing process lives
------------------
     ethr =  2.51E-08,  avg # of iterations =  5.5

     negative rho (up, down):  2.826E-10 2.140E-08

     total cpu time spent up to now is      295.9 secs

     total energy              =    -261.31820716 Ry
     estimated scf accuracy    <       0.00000420 Ry

     total magnetization       =     1.00 Bohr mag/cell
     absolute magnetization    =     1.11 Bohr mag/cell

     iteration #  7     ecut=   100.00 Ry     beta= 0.70
     Davidson diagonalization with overlap

---- Real-time Memory Report at c_bands before calling an iterative solver
           300 MiB given to the printing process from OS
             0 MiB allocation reported by mallinfo(arena+hblkhd)
          5724 MiB available memory on the node where the printing process lives
------------------
     ethr =  1.27E-08,  avg # of iterations =  4.5

     negative rho (up, down):  7.859E-11 1.470E-08

     total cpu time spent up to now is      299.7 secs

     total energy              =    -261.31820770 Ry
     estimated scf accuracy    <       0.00000136 Ry

     total magnetization       =     1.00 Bohr mag/cell
     absolute magnetization    =     1.11 Bohr mag/cell

     iteration #  8     ecut=   100.00 Ry     beta= 0.70
     Davidson diagonalization with overlap

---- Real-time Memory Report at c_bands before calling an iterative solver
           300 MiB given to the printing process from OS
             0 MiB allocation reported by mallinfo(arena+hblkhd)
          5676 MiB available memory on the node where the printing process lives
------------------
     ethr =  4.11E-09,  avg # of iterations =  4.0

     total cpu time spent up to now is      303.8 secs

     total energy              =    -261.31820814 Ry
     estimated scf accuracy    <       0.00000015 Ry

     total magnetization       =     1.00 Bohr mag/cell
     absolute magnetization    =     1.11 Bohr mag/cell

     iteration #  9     ecut=   100.00 Ry     beta= 0.70
     Davidson diagonalization with overlap

---- Real-time Memory Report at c_bands before calling an iterative solver
           300 MiB given to the printing process from OS
             0 MiB allocation reported by mallinfo(arena+hblkhd)
          5611 MiB available memory on the node where the printing process lives
------------------
     ethr =  4.40E-10,  avg # of iterations =  5.5

     total cpu time spent up to now is      308.7 secs

     total energy              =    -261.31820821 Ry
     estimated scf accuracy    <       0.00000011 Ry

     total magnetization       =     1.00 Bohr mag/cell
     absolute magnetization    =     1.11 Bohr mag/cell

     iteration # 10     ecut=   100.00 Ry     beta= 0.70
     Davidson diagonalization with overlap

---- Real-time Memory Report at c_bands before calling an iterative solver
           300 MiB given to the printing process from OS
             0 MiB allocation reported by mallinfo(arena+hblkhd)
          5566 MiB available memory on the node where the printing process lives
------------------
     ethr =  3.25E-10,  avg # of iterations =  4.0

     Magnetic moment per site  (integrated on atomic sphere of radius R)
     atom   1 (R=0.049)  charge=  4.7424  magn=  0.2420
     atom   2 (R=0.049)  charge=  4.0044  magn= -0.0128
     atom   3 (R=0.049)  charge=  4.0280  magn= -0.0120
     atom   4 (R=0.049)  charge=  4.0280  magn= -0.0120

     total cpu time spent up to now is      312.3 secs

     End of self-consistent calculation

 ------ SPIN UP ------------


          k = 0.0000 0.0000 0.0000 (113801 PWs)   bands (ev):

   -62.7359 -39.6344 -39.2890 -38.9237 -28.7651 -28.2023 -27.5474 -11.2045
   -10.9791 -10.5501 -10.5445 -10.2433  -9.8090  -9.5215  -9.2012  -8.9494
    -4.5882

     occupation numbers 
     1.0000   1.0000   1.0000   1.0000   1.0000   1.0000   1.0000   1.0000
     1.0000   1.0000   1.0000   1.0000   1.0000   1.0000   1.0000   1.0000
     1.0000

 ------ SPIN DOWN ----------


          k = 0.0000 0.0000 0.0000 (113801 PWs)   bands (ev):

   -62.0405 -39.1788 -38.7311 -37.8980 -28.7720 -28.1886 -27.5585 -11.1411
   -10.9264 -10.5311 -10.4971 -10.2376  -9.8204  -9.5150  -9.2040  -8.9655
    -2.8381

     occupation numbers 
     1.0000   1.0000   1.0000   1.0000   1.0000   1.0000   1.0000   1.0000
     1.0000   1.0000   1.0000   1.0000   1.0000   1.0000   1.0000   1.0000
     0.0000

     highest occupied, lowest unoccupied level (ev):    -4.5882   -2.8381

!    total energy              =    -261.31820823 Ry
     estimated scf accuracy    <          2.1E-09 Ry

     The total energy is the sum of the following terms:
     one-electron contribution =    -531.87055826 Ry
     hartree contribution      =     267.24640271 Ry
     xc contribution           =     -42.42619946 Ry
     ewald contribution        =      45.73214678 Ry

     total magnetization       =     1.00 Bohr mag/cell
     absolute magnetization    =     1.10 Bohr mag/cell

     convergence has been achieved in  10 iterations

     Forces acting on atoms (cartesian axes, Ry/au):

     atom    1 type  1   force =     0.00000000    0.15446601    0.00000000
     atom    2 type  2   force =     0.00000000   -0.02720071    0.00000000
     atom    3 type  2   force =     0.10418532   -0.06363265    0.00000000
     atom    4 type  2   force =    -0.10418532   -0.06363265    0.00000000
     The non-local contrib.  to forces
     atom    1 type  1   force =     0.00000000   -0.13854544    0.00000000
     atom    2 type  2   force =     0.00000000   -1.36678615    0.00000000
     atom    3 type  2   force =    -1.07635320    0.53196595    0.00000000
     atom    4 type  2   force =     1.07635320    0.53196595    0.00000000
     The ionic contribution  to forces
     atom    1 type  1   force =    -0.00000000    1.60043693   -0.00000000
     atom    2 type  2   force =     0.00000000   18.06579904   -0.00000000
     atom    3 type  2   force =    17.94024290   -9.83311798   -0.00000000
     atom    4 type  2   force =   -17.94024290   -9.83311798    0.00000000
     The local contribution  to forces
     atom    1 type  1   force =    -0.00000000   -1.30723731    0.00000000
     atom    2 type  2   force =    -0.00000000  -16.72600092    0.00000000
     atom    3 type  2   force =   -16.75966019    9.23764939    0.00000000
     atom    4 type  2   force =    16.75966019    9.23764939    0.00000000
     The core correction contribution to forces
     atom    1 type  1   force =     0.00000000    0.00000000    0.00000000
     atom    2 type  2   force =     0.00000000    0.00000000    0.00000000
     atom    3 type  2   force =     0.00000000    0.00000000    0.00000000
     atom    4 type  2   force =     0.00000000    0.00000000    0.00000000
     The Hubbard contrib.    to forces
     atom    1 type  1   force =     0.00000000    0.00000000    0.00000000
     atom    2 type  2   force =     0.00000000    0.00000000    0.00000000
     atom    3 type  2   force =     0.00000000    0.00000000    0.00000000
     atom    4 type  2   force =     0.00000000    0.00000000    0.00000000
     The SCF correction term to forces
     atom    1 type  1   force =    -0.00000000   -0.00003708    0.00000000
     atom    2 type  2   force =    -0.00000000   -0.00006160    0.00000000
     atom    3 type  2   force =    -0.00004418    0.00002108    0.00000000
     atom    4 type  2   force =     0.00004418    0.00002108    0.00000000

     Total force =     0.233253     Total SCF correction =     0.000100
     Energy error            =      5.9E-02 Ry
     Gradient error          =      1.5E-01 Ry/Bohr

     number of scf cycles    =   5
     number of bfgs steps    =   4

     energy             old  =    -261.2592729254 Ry
     energy             new  =    -261.3182082298 Ry

     CASE: energy            _new < energy            _old

     new trust radius        =       0.1143369754 bohr
     new conv_thr            =       0.0000000100 Ry


ATOMIC_POSITIONS (crystal)
Ti            0.0000000000       -0.0006112896        0.0000000000
F             0.0000000000        0.1796160541        0.0000000000
F             0.1548574822       -0.0895023823        0.0000000000
F            -0.1548574822       -0.0895023823        0.0000000000



     Writing config-only to output data dir ./scratch/tif3.save/
     NEW-OLD atomic charge density approx. for the potential

     negative rho (up, down):  2.302E-04 2.302E-04
     Generating pointlists ...

     total cpu time spent up to now is      313.8 secs

     Self-consistent Calculation

     iteration #  1     ecut=   100.00 Ry     beta= 0.70
     Davidson diagonalization with overlap

---- Real-time Memory Report at c_bands before calling an iterative solver
           300 MiB given to the printing process from OS
             0 MiB allocation reported by mallinfo(arena+hblkhd)
          6518 MiB available memory on the node where the printing process lives
------------------
     ethr =  1.00E-06,  avg # of iterations = 14.0

     negative rho (up, down):  3.842E-05 1.100E-04

     total cpu time spent up to now is      326.1 secs

     total energy              =    -261.33468494 Ry
     estimated scf accuracy    <       0.00974808 Ry

     total magnetization       =     1.00 Bohr mag/cell
     absolute magnetization    =     1.11 Bohr mag/cell

     iteration #  2     ecut=   100.00 Ry     beta= 0.70
     Davidson diagonalization with overlap

---- Real-time Memory Report at c_bands before calling an iterative solver
           300 MiB given to the printing process from OS
             0 MiB allocation reported by mallinfo(arena+hblkhd)
          6013 MiB available memory on the node where the printing process lives
------------------
     ethr =  2.95E-05,  avg # of iterations =  6.0

     negative rho (up, down):  2.714E-05 7.990E-05

     total cpu time spent up to now is      331.0 secs

     total energy              =    -261.33305618 Ry
     estimated scf accuracy    <       0.03151200 Ry

     total magnetization       =     1.00 Bohr mag/cell
     absolute magnetization    =     1.12 Bohr mag/cell

     iteration #  3     ecut=   100.00 Ry     beta= 0.70
     Davidson diagonalization with overlap

---- Real-time Memory Report at c_bands before calling an iterative solver
           300 MiB given to the printing process from OS
             0 MiB allocation reported by mallinfo(arena+hblkhd)
          5965 MiB available memory on the node where the printing process lives
------------------
     ethr =  2.95E-05,  avg # of iterations =  5.0

     negative rho (up, down):  7.308E-06 2.669E-05

     total cpu time spent up to now is      335.6 secs

     total energy              =    -261.33905407 Ry
     estimated scf accuracy    <       0.00029209 Ry

     total magnetization       =     1.00 Bohr mag/cell
     absolute magnetization    =     1.12 Bohr mag/cell

     iteration #  4     ecut=   100.00 Ry     beta= 0.70
     Davidson diagonalization with overlap

---- Real-time Memory Report at c_bands before calling an iterative solver
           300 MiB given to the printing process from OS
             0 MiB allocation reported by mallinfo(arena+hblkhd)
          5904 MiB available memory on the node where the printing process lives
------------------
     ethr =  8.85E-07,  avg # of iterations =  6.0

     negative rho (up, down):  8.207E-07 5.092E-06

     total cpu time spent up to now is      340.7 secs

     total energy              =    -261.33925358 Ry
     estimated scf accuracy    <       0.00039163 Ry

     total magnetization       =     1.00 Bohr mag/cell
     absolute magnetization    =     1.11 Bohr mag/cell

[...]
           300 MiB given to the printing process from OS
             0 MiB allocation reported by mallinfo(arena+hblkhd)
          5663 MiB available memory on the node where the printing process lives
------------------
     ethr =  1.16E-10,  avg # of iterations =  2.0

     total cpu time spent up to now is      404.8 secs

     total energy              =    -261.33948461 Ry
     estimated scf accuracy    <       0.00000001 Ry

     total magnetization       =     1.00 Bohr mag/cell
     absolute magnetization    =     1.12 Bohr mag/cell

     iteration #  9     ecut=   100.00 Ry     beta= 0.70
     Davidson diagonalization with overlap

---- Real-time Memory Report at c_bands before calling an iterative solver
           300 MiB given to the printing process from OS
             0 MiB allocation reported by mallinfo(arena+hblkhd)
          5618 MiB available memory on the node where the printing process lives
------------------
     ethr =  4.04E-11,  avg # of iterations =  5.0

     Magnetic moment per site  (integrated on atomic sphere of radius R)
     atom   1 (R=0.049)  charge=  4.7340  magn=  0.2563
     atom   2 (R=0.049)  charge=  4.0105  magn= -0.0133
     atom   3 (R=0.049)  charge=  4.0101  magn= -0.0134
     atom   4 (R=0.049)  charge=  4.0101  magn= -0.0134

     total cpu time spent up to now is      408.8 secs

     End of self-consistent calculation

 ------ SPIN UP ------------


          k = 0.0000 0.0000 0.0000 (113801 PWs)   bands (ev):

   -63.0525 -39.5973 -39.5912 -39.2617 -28.3861 -27.9712 -27.9626 -10.6178
   -10.6074 -10.6020  -9.9031  -9.8891  -9.5848  -9.5202  -9.5139  -9.2849
    -4.8502

     occupation numbers 
     1.0000   1.0000   1.0000   1.0000   1.0000   1.0000   1.0000   1.0000
     1.0000   1.0000   1.0000   1.0000   1.0000   1.0000   1.0000   1.0000
     1.0000

 ------ SPIN DOWN ----------


          k = 0.0000 0.0000 0.0000 (113801 PWs)   bands (ev):

   -62.3188 -39.0583 -39.0494 -38.1710 -28.4098 -27.9772 -27.9688 -10.5584
   -10.5579 -10.5403  -9.8962  -9.8824  -9.5945  -9.5336  -9.5276  -9.3085
    -3.0251

     occupation numbers 
     1.0000   1.0000   1.0000   1.0000   1.0000   1.0000   1.0000   1.0000
     1.0000   1.0000   1.0000   1.0000   1.0000   1.0000   1.0000   1.0000
     0.0000

     highest occupied, lowest unoccupied level (ev):    -4.8502   -3.0251

!    total energy              =    -261.33948461 Ry
     estimated scf accuracy    <          1.3E-09 Ry

     The total energy is the sum of the following terms:
     one-electron contribution =    -521.34304881 Ry
     hartree contribution      =     261.96252139 Ry
     xc contribution           =     -42.32387964 Ry
     ewald contribution        =      40.36492245 Ry

     total magnetization       =     1.00 Bohr mag/cell
     absolute magnetization    =     1.12 Bohr mag/cell

     convergence has been achieved in   9 iterations

     Forces acting on atoms (cartesian axes, Ry/au):

     atom    1 type  1   force =     0.00000000    0.00266763    0.00000000
     atom    2 type  2   force =     0.00000000   -0.00094172    0.00000000
     atom    3 type  2   force =     0.00146517   -0.00086295    0.00000000
     atom    4 type  2   force =    -0.00146517   -0.00086295    0.00000000
     The non-local contrib.  to forces
     atom    1 type  1   force =     0.00000000   -0.00547441    0.00000000
     atom    2 type  2   force =     0.00000000   -1.35297303    0.00000000
     atom    3 type  2   force =    -1.17082254    0.67723424    0.00000000
     atom    4 type  2   force =     1.17082254    0.67723424   -0.00000000
     The ionic contribution  to forces
     atom    1 type  1   force =    -0.00000000    0.12805921    0.00000000
     atom    2 type  2   force =    -0.00000000   18.42925370   -0.00000000
     atom    3 type  2   force =    16.02508347   -9.27865646    0.00000000
     atom    4 type  2   force =   -16.02508347   -9.27865646   -0.00000000
     The local contribution  to forces
     atom    1 type  1   force =     0.00000000   -0.12007016    0.00000000
     atom    2 type  2   force =    -0.00000000  -17.07742213    0.00000000
     atom    3 type  2   force =   -14.85283923    8.60041597    0.00000000
     atom    4 type  2   force =    14.85283923    8.60041597    0.00000000
     The core correction contribution to forces
     atom    1 type  1   force =     0.00000000    0.00000000    0.00000000
     atom    2 type  2   force =     0.00000000    0.00000000    0.00000000
     atom    3 type  2   force =     0.00000000    0.00000000    0.00000000
     atom    4 type  2   force =     0.00000000    0.00000000    0.00000000
     The Hubbard contrib.    to forces
     atom    1 type  1   force =     0.00000000    0.00000000    0.00000000
     atom    2 type  2   force =     0.00000000    0.00000000    0.00000000
     atom    3 type  2   force =     0.00000000    0.00000000    0.00000000
     atom    4 type  2   force =     0.00000000    0.00000000    0.00000000
     The SCF correction term to forces
     atom    1 type  1   force =    -0.00000000   -0.00001851   -0.00000000
     atom    2 type  2   force =     0.00000000    0.00002825    0.00000000
     atom    3 type  2   force =     0.00004346   -0.00002820    0.00000000
     atom    4 type  2   force =    -0.00004346   -0.00002820    0.00000000

     Total force =     0.003713     Total SCF correction =     0.000081
     Energy error            =      2.0E-04 Ry
     Gradient error          =      2.7E-03 Ry/Bohr

     number of scf cycles    =   7
     number of bfgs steps    =   6

     energy             old  =    -261.3392876012 Ry
     energy             new  =    -261.3394846128 Ry

     CASE: energy            _new < energy            _old

     new trust radius        =       0.0020575903 bohr
     new conv_thr            =       0.0000000002 Ry


ATOMIC_POSITIONS (crystal)
Ti            0.0000000000        0.0000477681        0.0000000000
F             0.0000000000        0.1795684212        0.0000000000
F             0.1553350186       -0.0898080947        0.0000000000
F            -0.1553350186       -0.0898080947        0.0000000000



     Writing config-only to output data dir ./scratch/tif3.save/
     NEW-OLD atomic charge density approx. for the potential

     negative rho (up, down):  9.470E-07 9.470E-07
     Generating pointlists ...

     total cpu time spent up to now is      410.3 secs

     Self-consistent Calculation

     iteration #  1     ecut=   100.00 Ry     beta= 0.70
     Davidson diagonalization with overlap

---- Real-time Memory Report at c_bands before calling an iterative solver
           300 MiB given to the printing process from OS
             0 MiB allocation reported by mallinfo(arena+hblkhd)
          6530 MiB available memory on the node where the printing process lives
------------------
     ethr =  1.00E-06,  avg # of iterations =  3.0

     Threshold (ethr) on eigenvalues was too large:
     Diagonalizing with lowered threshold

     Davidson diagonalization with overlap

---- Real-time Memory Report at c_bands before calling an iterative solver
           300 MiB given to the printing process from OS
             0 MiB allocation reported by mallinfo(arena+hblkhd)
          6418 MiB available memory on the node where the printing process lives
------------------
     ethr =  1.04E-08,  avg # of iterations =  5.0

     negative rho (up, down):  7.067E-08 6.173E-07

     total cpu time spent up to now is      418.9 secs

     total energy              =    -261.33948992 Ry
     estimated scf accuracy    <       0.00000251 Ry

     total magnetization       =     1.00 Bohr mag/cell
     absolute magnetization    =     1.12 Bohr mag/cell

     iteration #  2     ecut=   100.00 Ry     beta= 0.70
     Davidson diagonalization with overlap

---- Real-time Memory Report at c_bands before calling an iterative solver
           300 MiB given to the printing process from OS
             0 MiB allocation reported by mallinfo(arena+hblkhd)
          5987 MiB available memory on the node where the printing process lives
------------------
     ethr =  7.59E-09,  avg # of iterations =  5.5

     negative rho (up, down):  2.923E-08 3.630E-07

     total cpu time spent up to now is      423.5 secs

     total energy              =    -261.33948995 Ry
     estimated scf accuracy    <       0.00000390 Ry

     total magnetization       =     1.00 Bohr mag/cell
     absolute magnetization    =     1.12 Bohr mag/cell

     iteration #  3     ecut=   100.00 Ry     beta= 0.70
     Davidson diagonalization with overlap

---- Real-time Memory Report at c_bands before calling an iterative solver
           300 MiB given to the printing process from OS
             0 MiB allocation reported by mallinfo(arena+hblkhd)
          5934 MiB available memory on the node where the printing process lives
------------------
     ethr =  7.59E-09,  avg # of iterations =  5.0

     negative rho (up, down):  4.974E-10 5.783E-08

     total cpu time spent up to now is      427.8 secs

     total energy              =    -261.33949081 Ry
     estimated scf accuracy    <       0.00000020 Ry

     total magnetization       =     1.00 Bohr mag/cell
     absolute magnetization    =     1.12 Bohr mag/cell

     iteration #  4     ecut=   100.00 Ry     beta= 0.70
     Davidson diagonalization with overlap

---- Real-time Memory Report at c_bands before calling an iterative solver
           300 MiB given to the printing process from OS
             0 MiB allocation reported by mallinfo(arena+hblkhd)
          5867 MiB available memory on the node where the printing process lives
------------------
     ethr =  6.17E-10,  avg # of iterations =  4.5

     total cpu time spent up to now is      431.9 secs

     total energy              =    -261.33949084 Ry
     estimated scf accuracy    <       0.00000005 Ry

     total magnetization       =     1.00 Bohr mag/cell
     absolute magnetization    =     1.12 Bohr mag/cell

     iteration #  5     ecut=   100.00 Ry     beta= 0.70
     Davidson diagonalization with overlap

---- Real-time Memory Report at c_bands before calling an iterative solver
           300 MiB given to the printing process from OS
             0 MiB allocation reported by mallinfo(arena+hblkhd)
          5818 MiB available memory on the node where the printing process lives
------------------
     ethr =  1.54E-10,  avg # of iterations =  5.0

     total cpu time spent up to now is      436.3 secs

     total energy              =    -261.33949086 Ry
     estimated scf accuracy    <          4.0E-09 Ry

     total magnetization       =     1.00 Bohr mag/cell
     absolute magnetization    =     1.12 Bohr mag/cell

     iteration #  6     ecut=   100.00 Ry     beta= 0.70
     Davidson diagonalization with overlap

---- Real-time Memory Report at c_bands before calling an iterative solver
           300 MiB given to the printing process from OS
             0 MiB allocation reported by mallinfo(arena+hblkhd)
          5761 MiB available memory on the node where the printing process lives
------------------
     ethr =  1.21E-11,  avg # of iterations =  3.5

     total cpu time spent up to now is      440.3 secs

     total energy              =    -261.33949086 Ry
     estimated scf accuracy    <          1.6E-09 Ry

     total magnetization       =     1.00 Bohr mag/cell
     absolute magnetization    =     1.12 Bohr mag/cell

     iteration #  7     ecut=   100.00 Ry     beta= 0.70
     Davidson diagonalization with overlap

---- Real-time Memory Report at c_bands before calling an iterative solver
           300 MiB given to the printing process from OS
             0 MiB allocation reported by mallinfo(arena+hblkhd)
          5696 MiB available memory on the node where the printing process lives
------------------
     ethr =  4.84E-12,  avg # of iterations =  5.0

     Magnetic moment per site  (integrated on atomic sphere of radius R)
     atom   1 (R=0.049)  charge=  4.7340  magn=  0.2565
     atom   2 (R=0.049)  charge=  4.0107  magn= -0.0133
     atom   3 (R=0.049)  charge=  4.0098  magn= -0.0134
     atom   4 (R=0.049)  charge=  4.0098  magn= -0.0134

     total cpu time spent up to now is      444.6 secs

     End of self-consistent calculation

 ------ SPIN UP ------------


          k = 0.0000 0.0000 0.0000 (113801 PWs)   bands (ev):

   -63.0566 -39.5969 -39.5963 -39.2660 -28.3837 -27.9671 -27.9653 -10.6135
   -10.6034 -10.6028  -9.8943  -9.8919  -9.5830  -9.5159  -9.5157  -9.2832
    -4.8537

     occupation numbers 
     1.0000   1.0000   1.0000   1.0000   1.0000   1.0000   1.0000   1.0000
     1.0000   1.0000   1.0000   1.0000   1.0000   1.0000   1.0000   1.0000
     1.0000

 ------ SPIN DOWN ----------


          k = 0.0000 0.0000 0.0000 (113801 PWs)   bands (ev):

   -62.3225 -39.0563 -39.0552 -38.1745 -28.4074 -27.9733 -27.9715 -10.5545
   -10.5541 -10.5408  -9.8876  -9.8852  -9.5928  -9.5295  -9.5293  -9.3069
    -3.0276

     occupation numbers 
     1.0000   1.0000   1.0000   1.0000   1.0000   1.0000   1.0000   1.0000
     1.0000   1.0000   1.0000   1.0000   1.0000   1.0000   1.0000   1.0000
     0.0000

     highest occupied, lowest unoccupied level (ev):    -4.8537   -3.0276

!    total energy              =    -261.33949086 Ry
     estimated scf accuracy    <          8.1E-11 Ry

     The total energy is the sum of the following terms:
     one-electron contribution =    -521.20067685 Ry
     hartree contribution      =     261.89103855 Ry
     xc contribution           =     -42.32265387 Ry
     ewald contribution        =      40.29280130 Ry

     total magnetization       =     1.00 Bohr mag/cell
     absolute magnetization    =     1.12 Bohr mag/cell

     convergence has been achieved in   7 iterations

     Forces acting on atoms (cartesian axes, Ry/au):

     atom    1 type  1   force =     0.00000000   -0.00007667    0.00000000
     atom    2 type  2   force =     0.00000000    0.00001643    0.00000000
     atom    3 type  2   force =     0.00012103    0.00003012    0.00000000
     atom    4 type  2   force =    -0.00012103    0.00003012    0.00000000
     The non-local contrib.  to forces
     atom    1 type  1   force =     0.00000000   -0.00284140    0.00000000
     atom    2 type  2   force =     0.00000000   -1.35211449    0.00000000
     atom    3 type  2   force =    -1.17179109    0.67949051    0.00000000
     atom    4 type  2   force =     1.17179109    0.67949051    0.00000000
     The ionic contribution  to forces
     atom    1 type  1   force =     0.00000000    0.09634620   -0.00000000
     atom    2 type  2   force =    -0.00000000   18.44445104    0.00000000
     atom    3 type  2   force =    15.99444638   -9.27039862   -0.00000000
     atom    4 type  2   force =   -15.99444638   -9.27039862    0.00000000
     The local contribution  to forces
     atom    1 type  1   force =     0.00000000   -0.09376511    0.00000000
     atom    2 type  2   force =     0.00000000  -17.09249936    0.00000000
     atom    3 type  2   force =   -14.82252581    8.59074288    0.00000000
     atom    4 type  2   force =    14.82252581    8.59074288    0.00000000
     The core correction contribution to forces
     atom    1 type  1   force =     0.00000000    0.00000000    0.00000000
     atom    2 type  2   force =     0.00000000    0.00000000    0.00000000
     atom    3 type  2   force =     0.00000000    0.00000000    0.00000000
     atom    4 type  2   force =     0.00000000    0.00000000    0.00000000
     The Hubbard contrib.    to forces
     atom    1 type  1   force =     0.00000000    0.00000000    0.00000000
     atom    2 type  2   force =     0.00000000    0.00000000    0.00000000
     atom    3 type  2   force =     0.00000000    0.00000000    0.00000000
     atom    4 type  2   force =     0.00000000    0.00000000    0.00000000
     The SCF correction term to forces
     atom    1 type  1   force =    -0.00000000   -0.00000440   -0.00000000
     atom    2 type  2   force =     0.00000000   -0.00000878    0.00000000
     atom    3 type  2   force =    -0.00000845    0.00000731   -0.00000000
     atom    4 type  2   force =     0.00000845    0.00000731    0.00000000

     Total force =     0.000193     Total SCF correction =     0.000019
     Energy error            =      6.3E-06 Ry
     Gradient error          =      1.2E-04 Ry/Bohr

     bfgs converged in   8 scf cycles and   7 bfgs steps
     (criteria: energy <  1.0E-04 Ry, force <  1.0E-03 Ry/Bohr)

     End of BFGS Geometry Optimization

     Final energy             =    -261.3394908645 Ry

     File ./scratch/tif3.bfgs deleted, as requested
Begin final coordinates

ATOMIC_POSITIONS (crystal)
Ti            0.0000000000        0.0000477681        0.0000000000
F             0.0000000000        0.1795684212        0.0000000000
F             0.1553350186       -0.0898080947        0.0000000000
F            -0.1553350186       -0.0898080947        0.0000000000
End final coordinates



     Writing all to output data dir ./scratch/tif3.save/

     init_run     :      3.17s CPU      3.43s WALL (       1 calls)
     electrons    :    415.49s CPU    431.17s WALL (       8 calls)
     update_pot   :      6.87s CPU      7.44s WALL (       7 calls)
     forces       :      2.24s CPU      2.31s WALL (       8 calls)

     Called by init_run:
     wfcinit      :      1.97s CPU      2.03s WALL (       1 calls)
     wfcinit:atom :      0.03s CPU      0.03s WALL (       2 calls)
     wfcinit:wfcr :      1.87s CPU      1.93s WALL (       2 calls)
     potinit      :      0.72s CPU      0.87s WALL (       1 calls)
     hinit0       :      0.15s CPU      0.17s WALL (       1 calls)

     Called by electrons:
     c_bands      :    291.68s CPU    301.59s WALL (      84 calls)
     sum_band     :     47.09s CPU     49.12s WALL (      84 calls)
     v_of_rho     :     63.89s CPU     66.60s WALL (      91 calls)
     v_h          :      3.42s CPU      3.58s WALL (      91 calls)
     v_xc         :     60.47s CPU     63.02s WALL (      91 calls)
     mix_rho      :     15.73s CPU     16.64s WALL (      84 calls)

     Called by c_bands:
     init_us_2    :      0.79s CPU      0.80s WALL (     354 calls)
     init_us_2:cp :      0.79s CPU      0.80s WALL (     354 calls)
     cegterg      :    289.93s CPU    299.82s WALL (     168 calls)

     Called by sum_band:
     sum_band:wei :      0.00s CPU      0.00s WALL (      84 calls)
     sum_band:loo :     36.23s CPU     37.08s WALL (      84 calls)
     sum_band:buf :      0.52s CPU      0.53s WALL (     168 calls)
     sum_band:ini :      0.39s CPU      0.39s WALL (     168 calls)

     Called by *egterg:
     cdiaghg      :      0.39s CPU      0.39s WALL (     992 calls)
     cegterg:over :     15.39s CPU     15.43s WALL (     840 calls)
     cegterg:upda :      8.50s CPU      8.54s WALL (     840 calls)
     cegterg:last :     13.66s CPU     13.68s WALL (     573 calls)
     h_psi        :    246.75s CPU    256.55s WALL (    1010 calls)
     g_psi        :      0.70s CPU      0.71s WALL (     840 calls)

     Called by h_psi:
     h_psi:calbec :      3.86s CPU      3.98s WALL (    1010 calls)
     vloc_psi     :    238.49s CPU    248.07s WALL (    1010 calls)
     add_vuspsi   :      2.25s CPU      2.27s WALL (    1010 calls)

     General routines
     calbec       :      4.15s CPU      4.27s WALL (    1074 calls)
     fft          :     41.44s CPU     44.10s WALL (    1730 calls)
     ffts         :      3.90s CPU      4.13s WALL (     168 calls)
     fftw         :    222.87s CPU    231.74s WALL (   24392 calls)

     Parallel routines

     PWSCF        :   7m 8.48s CPU   7m25.27s WALL


   This run was terminated on:  14:18:49  21Nov2024            

=------------------------------------------------------------------------------=
   JOB DONE.
=------------------------------------------------------------------------------=
