
ATOMS
 22     0.000000000    0.000477681    0.000000000    0.000000000   -0.000076670    0.000000000
  9     0.000000000    1.795684181    0.000000000    0.000000000    0.000016430    0.000000000
  9     1.553350159   -0.898080931    0.000000000    0.000121030    0.000030120    0.000000000
  9    -1.553350159   -0.898080931    0.000000000   -0.000121030    0.000030120    0.000000000
 

