
     Program PWSCF v.7.2 starts on 21Nov2024 at 14:33:39 

     This program is part of the open-source Quantum ESPRESSO suite
     for quantum simulation of materials; please cite
         "P. Giannozzi et al., J. Phys.:Condens. Matter 21 395502 (2009);
         "P. Giannozzi et al., J. Phys.:Condens. Matter 29 465901 (2017);
         "P. Giannozzi et al., J. Chem. Phys. 152 154105 (2020);
          URL http://www.quantum-espresso.org", 
     in publications or presentations arising from this work. More details at
     http://www.quantum-espresso.org/quote

     Parallel version (MPI), running on     6 processors

     MPI processes distributed on     1 nodes
     7146 MiB available memory on the printing compute node when the environment starts

     Waiting for input...
     Reading input from standard input

     Current dimensions of program PWSCF are:
     Max number of different atomic species (ntypx) = 10
     Max number of k-points (npk) =  40000
     Max angular momentum in pseudopotentials (lmaxx) =  4

     File ./scratch/tif3.update deleted, as requested

     File ./scratch/tif3.bfgs deleted, as requested

     IMPORTANT: XC functional enforced from input :
     Exchange-correlation= PBE0
                           (   6   4   8   4   0   0   0)
     EXX-fraction              =        0.25
     Any further DFT definition will be discarded
     Please, verify this is what you really want

     EXX fraction changed:   0.20
     Message from routine setup:
     the system is metallic, specify occupations
     Message from routine setup:
     using ibrav=0 with symmetry is DISCOURAGED, use correct ibrav instead

     R & G space division:  proc/nbgrp/npool/nimage =       6
     Subspace diagonalization in iterative solution of the eigenvalue problem:
     a serial algorithm will be used

     EXX: q-point mesh:     1    1    1
     EXX: grid of k+q points same as grid of k-points

     Parallelization info
     --------------------
     sticks:   dense  smooth     PW     G-vecs:    dense   smooth      PW
     Min        1894    1894    473               151984   151984   18966
     Max        1895    1895    475               151987   151987   18967
     Sum       11369   11369   2845               911913   911913  113801

     Using Slab Decomposition



     bravais-lattice index     =            0
     lattice parameter (alat)  =      18.8973  a.u.
     unit-cell volume          =    6748.3345 (a.u.)^3
     number of atoms/cell      =            4
     number of atomic types    =            2
     number of electrons       =        33.00 (up:  17.00, down:  16.00)
     number of Kohn-Sham states=           17
     kinetic-energy cutoff     =     100.0000  Ry
     charge density cutoff     =     400.0000  Ry
     cutoff for Fock operator  =     100.0000  Ry
     scf convergence threshold =      1.0E-08
     mixing beta               =       0.7000
     number of iterations used =            8  plain     mixing
     energy convergence thresh.=      1.0E-04
     force convergence thresh. =      1.0E-03
     Exchange-correlation= PBE0
                           (   6   4   8   4   0   0   0)
     EXX-fraction              =        0.20
     nstep                     =           50


     celldm(1)=  18.897261  celldm(2)=   0.000000  celldm(3)=   0.000000
     celldm(4)=   0.000000  celldm(5)=   0.000000  celldm(6)=   0.000000

     crystal axes: (cart. coord. in units of alat)
               a(1) = (   1.000000   0.000000   0.000000 )  
               a(2) = (   0.000000   1.000000   0.000000 )  
               a(3) = (   0.000000   0.000000   1.000000 )  

     reciprocal axes: (cart. coord. in units 2 pi/alat)
               b(1) = (  1.000000  0.000000  0.000000 )  
               b(2) = (  0.000000  1.000000  0.000000 )  
               b(3) = (  0.000000  0.000000  1.000000 )  


     PseudoPot. # 1 for Ti read from file:
     ../../pbe/pseudo/Ti.pbe-tm-gipaw-semi-dc.UPF
     MD5 check sum: 0d5e5be629ad81857689d77ece9f3b93
     Pseudo is Norm-conserving, Zval = 12.0
     Generated by new atomic code, or converted to UPF format
     Using radial grid of 1571 points,  2 beta functions with: 
                l(1) =   0
                l(2) =   1

     PseudoPot. # 2 for F  read from file:
     ../../pbe/pseudo/F.pbe-tm-new-gipaw-dc.UPF
     MD5 check sum: ce5ef009770ae7616321e2944b9cf54d
     Pseudo is Norm-conserving, Zval =  7.0
     Generated by new atomic code, or converted to UPF format
     Using radial grid of 1481 points,  1 beta functions with: 
                l(1) =   0

     atomic species   valence    mass     pseudopotential
        Ti            12.00    47.86700     Ti( 1.00)
        F              7.00    18.99800     F ( 1.00)

     Starting magnetic structure 
     atomic species   magnetization
        Ti           0.000
        F            0.000

      4 Sym. Ops. (no inversion) found


                                    s                        frac. trans.

      isym =  1     identity                                     

 cryst.   s( 1) = (     1          0          0      )
                  (     0          1          0      )
                  (     0          0          1      )

 cart.    s( 1) = (  1.0000000  0.0000000  0.0000000 )
                  (  0.0000000  1.0000000  0.0000000 )
                  (  0.0000000  0.0000000  1.0000000 )


      isym =  2     180 deg rotation - cart. axis [0,1,0]        

 cryst.   s( 2) = (    -1          0          0      )
                  (     0          1          0      )
                  (     0          0         -1      )

 cart.    s( 2) = ( -1.0000000  0.0000000  0.0000000 )
                  (  0.0000000  1.0000000  0.0000000 )
                  (  0.0000000  0.0000000 -1.0000000 )


      isym =  3     inv. 180 deg rotation - cart. axis [0,0,1]   

 cryst.   s( 3) = (     1          0          0      )
                  (     0          1          0      )
                  (     0          0         -1      )

 cart.    s( 3) = (  1.0000000  0.0000000  0.0000000 )
                  (  0.0000000  1.0000000  0.0000000 )
                  (  0.0000000  0.0000000 -1.0000000 )


      isym =  4     inv. 180 deg rotation - cart. axis [1,0,0]   

 cryst.   s( 4) = (    -1          0          0      )
                  (     0          1          0      )
                  (     0          0          1      )

 cart.    s( 4) = ( -1.0000000  0.0000000  0.0000000 )
                  (  0.0000000  1.0000000  0.0000000 )
                  (  0.0000000  0.0000000  1.0000000 )


   Cartesian axes

     site n.     atom                  positions (alat units)
         1           Ti  tau(   1) = (   0.0000000   0.0000112   0.0000000  )
         2           F   tau(   2) = (   0.0000000   0.1196685   0.0000000  )
         3           F   tau(   3) = (   0.1035846  -0.0598399   0.0000000  )
         4           F   tau(   4) = (  -0.1035846  -0.0598399   0.0000000  )

   Crystallographic axes

     site n.     atom                  positions (cryst. coord.)
         1           Ti  tau(   1) = (  0.0000000  0.0000112  0.0000000  )
         2           F   tau(   2) = (  0.0000000  0.1196685  0.0000000  )
         3           F   tau(   3) = (  0.1035846 -0.0598399  0.0000000  )
         4           F   tau(   4) = ( -0.1035846 -0.0598399  0.0000000  )

     number of k points=     1
                       cart. coord. in units 2pi/alat
        k(    1) = (   0.0000000   0.0000000   0.0000000), wk =   1.0000000

                       cryst. coord.
        k(    1) = (   0.0000000   0.0000000   0.0000000), wk =   1.0000000

     Dense  grid:   911913 G-vectors     FFT dimensions: ( 125, 125, 125)

     Dynamical RAM for                 wfc:       4.93 MB

     Dynamical RAM for     wfc (w. buffer):      14.78 MB

     Dynamical RAM for                 EXX:      37.68 MB

     Dynamical RAM for           str. fact:       4.64 MB

     Dynamical RAM for           local pot:       0.00 MB

     Dynamical RAM for          nlocal pot:       2.03 MB

     Dynamical RAM for                qrad:       0.28 MB

     Dynamical RAM for          rho,v,vnew:      28.94 MB

     Dynamical RAM for               rhoin:       9.65 MB

     Dynamical RAM for            rho*nmix:      74.21 MB

     Dynamical RAM for           G-vectors:       9.86 MB

     Dynamical RAM for          h,s,v(r/c):       0.05 MB

     Dynamical RAM for          <psi|beta>:       0.00 MB

     Dynamical RAM for                 psi:       9.85 MB

     Dynamical RAM for                hpsi:       9.85 MB

     Dynamical RAM for      wfcinit/wfcrot:      24.38 MB

     Estimated static dynamical RAM per process >     129.81 MB

     Estimated max dynamical RAM per process >     228.41 MB

     Estimated total dynamical RAM >       1.34 GB
     EXX: ACE will be initialized later
     Generating pointlists ...
     new r_m :   0.0493 (alat units)  0.9325 (a.u.) for type    1
     new r_m :   0.0493 (alat units)  0.9325 (a.u.) for type    2

     Initial potential from superposition of free atoms

     starting charge      31.0000, renormalised to      33.0000

     negative rho (up, down):  4.222E-04 4.222E-04
     Starting wfcs are   42 randomized atomic wfcs

     total cpu time spent up to now is        3.7 secs

     Self-consistent Calculation

     iteration #  1     ecut=   100.00 Ry     beta= 0.70
     Davidson diagonalization with overlap

---- Real-time Memory Report at c_bands before calling an iterative solver
           158 MiB given to the printing process from OS
             0 MiB allocation reported by mallinfo(arena+hblkhd)
          6491 MiB available memory on the node where the printing process lives
------------------
     ethr =  1.00E-04,  avg # of iterations =  7.5

     negative rho (up, down):  0.000E+00 2.766E-05

     total cpu time spent up to now is        9.7 secs

     total energy              =    -257.30543959 Ry
     estimated scf accuracy    <       0.75475800 Ry

     total magnetization       =     1.00 Bohr mag/cell
     absolute magnetization    =     1.00 Bohr mag/cell

     iteration #  2     ecut=   100.00 Ry     beta= 0.70
     Davidson diagonalization with overlap

---- Real-time Memory Report at c_bands before calling an iterative solver
           220 MiB given to the printing process from OS
             0 MiB allocation reported by mallinfo(arena+hblkhd)
          5984 MiB available memory on the node where the printing process lives
------------------
     ethr =  2.29E-03,  avg # of iterations =  5.5

     negative rho (up, down):  0.000E+00 1.554E-05

     total cpu time spent up to now is       14.2 secs

     total energy              =    -257.56295439 Ry
     estimated scf accuracy    <       0.50506648 Ry

     total magnetization       =     1.00 Bohr mag/cell
     absolute magnetization    =     1.00 Bohr mag/cell

     iteration #  3     ecut=   100.00 Ry     beta= 0.70
     Davidson diagonalization with overlap

---- Real-time Memory Report at c_bands before calling an iterative solver
           230 MiB given to the printing process from OS
             0 MiB allocation reported by mallinfo(arena+hblkhd)
          5937 MiB available memory on the node where the printing process lives
------------------
     ethr =  1.53E-03,  avg # of iterations =  3.0

     negative rho (up, down):  0.000E+00 3.513E-06

     total cpu time spent up to now is       17.8 secs

     total energy              =    -257.64803902 Ry
     estimated scf accuracy    <       0.01269896 Ry

     total magnetization       =     1.00 Bohr mag/cell
     absolute magnetization    =     1.01 Bohr mag/cell

     iteration #  4     ecut=   100.00 Ry     beta= 0.70
     Davidson diagonalization with overlap

---- Real-time Memory Report at c_bands before calling an iterative solver
           239 MiB given to the printing process from OS
             0 MiB allocation reported by mallinfo(arena+hblkhd)
          5890 MiB available memory on the node where the printing process lives
------------------
     ethr =  3.85E-05,  avg # of iterations =  5.5

     negative rho (up, down):  0.000E+00 9.483E-07

     total cpu time spent up to now is       22.3 secs

     total energy              =    -257.65313944 Ry
     estimated scf accuracy    <       0.00509788 Ry

     total magnetization       =     1.00 Bohr mag/cell
     absolute magnetization    =     1.02 Bohr mag/cell

     iteration #  5     ecut=   100.00 Ry     beta= 0.70
     Davidson diagonalization with overlap

---- Real-time Memory Report at c_bands before calling an iterative solver
           248 MiB given to the printing process from OS
             0 MiB allocation reported by mallinfo(arena+hblkhd)
          5814 MiB available memory on the node where the printing process lives
------------------
     ethr =  1.54E-05,  avg # of iterations =  3.5

     negative rho (up, down):  0.000E+00 1.545E-07

     total cpu time spent up to now is       26.2 secs

     total energy              =    -257.65426126 Ry
     estimated scf accuracy    <       0.00040728 Ry

     total magnetization       =     1.00 Bohr mag/cell
     absolute magnetization    =     1.02 Bohr mag/cell

     iteration #  6     ecut=   100.00 Ry     beta= 0.70
     Davidson diagonalization with overlap

---- Real-time Memory Report at c_bands before calling an iterative solver
           258 MiB given to the printing process from OS
             0 MiB allocation reported by mallinfo(arena+hblkhd)
          5758 MiB available memory on the node where the printing process lives
------------------
     ethr =  1.23E-06,  avg # of iterations =  5.0

     total cpu time spent up to now is       30.6 secs

     total energy              =    -257.65426072 Ry
     estimated scf accuracy    <       0.00029948 Ry

     total magnetization       =     1.00 Bohr mag/cell
     absolute magnetization    =     1.02 Bohr mag/cell

     iteration #  7     ecut=   100.00 Ry     beta= 0.70
     Davidson diagonalization with overlap

---- Real-time Memory Report at c_bands before calling an iterative solver
           267 MiB given to the printing process from OS
             0 MiB allocation reported by mallinfo(arena+hblkhd)
          5703 MiB available memory on the node where the printing process lives
------------------
     ethr =  9.08E-07,  avg # of iterations =  2.5

     total cpu time spent up to now is       34.2 secs

     total energy              =    -257.65431748 Ry
     estimated scf accuracy    <       0.00000370 Ry

     total magnetization       =     1.00 Bohr mag/cell
     absolute magnetization    =     1.02 Bohr mag/cell

     iteration #  8     ecut=   100.00 Ry     beta= 0.70
     Davidson diagonalization with overlap

---- Real-time Memory Report at c_bands before calling an iterative solver
           276 MiB given to the printing process from OS
             0 MiB allocation reported by mallinfo(arena+hblkhd)
          5668 MiB available memory on the node where the printing process lives
------------------
     ethr =  1.12E-08,  avg # of iterations =  5.5

     total cpu time spent up to now is       39.9 secs

     total energy              =    -257.65432207 Ry
     estimated scf accuracy    <       0.00000837 Ry

     total magnetization       =     1.00 Bohr mag/cell
     absolute magnetization    =     1.02 Bohr mag/cell

     iteration #  9     ecut=   100.00 Ry     beta= 0.70
     Davidson diagonalization with overlap

---- Real-time Memory Report at c_bands before calling an iterative solver
           285 MiB given to the printing process from OS
             0 MiB allocation reported by mallinfo(arena+hblkhd)
          5555 MiB available memory on the node where the printing process lives
------------------
     ethr =  1.12E-08,  avg # of iterations =  4.0

     total cpu time spent up to now is       44.3 secs

     total energy              =    -257.65432348 Ry
     estimated scf accuracy    <       0.00000015 Ry

     total magnetization       =     1.00 Bohr mag/cell
     absolute magnetization    =     1.02 Bohr mag/cell

     iteration # 10     ecut=   100.00 Ry     beta= 0.70
     Davidson diagonalization with overlap

---- Real-time Memory Report at c_bands before calling an iterative solver
           295 MiB given to the printing process from OS
             0 MiB allocation reported by mallinfo(arena+hblkhd)
          5503 MiB available memory on the node where the printing process lives
------------------
     ethr =  4.41E-10,  avg # of iterations =  5.0

     total cpu time spent up to now is       49.0 secs

     total energy              =    -257.65432362 Ry
     estimated scf accuracy    <       0.00000011 Ry

     total magnetization       =     1.00 Bohr mag/cell
     absolute magnetization    =     1.02 Bohr mag/cell

     iteration # 11     ecut=   100.00 Ry     beta= 0.70
     Davidson diagonalization with overlap

---- Real-time Memory Report at c_bands before calling an iterative solver
           295 MiB given to the printing process from OS
             0 MiB allocation reported by mallinfo(arena+hblkhd)
          5498 MiB available memory on the node where the printing process lives
------------------
     ethr =  3.43E-10,  avg # of iterations =  1.5

     total cpu time spent up to now is       52.3 secs

     total energy              =    -257.65432360 Ry
     estimated scf accuracy    <       0.00000005 Ry

     total magnetization       =     1.00 Bohr mag/cell
     absolute magnetization    =     1.02 Bohr mag/cell

     iteration # 12     ecut=   100.00 Ry     beta= 0.70
     Davidson diagonalization with overlap

---- Real-time Memory Report at c_bands before calling an iterative solver
           295 MiB given to the printing process from OS
             0 MiB allocation reported by mallinfo(arena+hblkhd)
          5488 MiB available memory on the node where the printing process lives
------------------
     ethr =  1.52E-10,  avg # of iterations =  4.0

     Magnetic moment per site  (integrated on atomic sphere of radius R)
     atom   1 (R=0.049)  charge=  5.2041  magn=  0.0449
     atom   2 (R=0.049)  charge=  4.2882  magn=  0.0123
     atom   3 (R=0.049)  charge=  4.2899  magn=  0.0123
     atom   4 (R=0.049)  charge=  4.2899  magn=  0.0123

     total cpu time spent up to now is       56.4 secs

     End of self-consistent calculation

 ------ SPIN UP ------------


          k = 0.0000 0.0000 0.0000 (113801 PWs)   bands (ev):

   -62.4619 -45.7417 -45.7378 -35.4028 -28.3290 -24.9267 -24.9255 -16.8077
   -16.8032 -15.4596 -15.4557 -12.4803 -11.4982 -11.3598  -5.7879  -5.7827
    -2.1127

     occupation numbers 
     1.0000   1.0000   1.0000   1.0000   1.0000   1.0000   1.0000   1.0000
     1.0000   1.0000   1.0000   1.0000   1.0000   1.0000   1.0000   1.0000
     1.0000

 ------ SPIN DOWN ----------


          k = 0.0000 0.0000 0.0000 (113801 PWs)   bands (ev):

   -62.3458 -45.6636 -45.6598 -35.2631 -28.2589 -24.8329 -24.8316 -16.7359
   -16.7313 -15.3834 -15.3795 -12.4571 -11.4465 -11.2091  -5.7059  -5.7006
    -1.2123

     occupation numbers 
     1.0000   1.0000   1.0000   1.0000   1.0000   1.0000   1.0000   1.0000
     1.0000   1.0000   1.0000   1.0000   1.0000   1.0000   1.0000   1.0000
     0.0000

     highest occupied, lowest unoccupied level (ev):    -2.1127   -1.2123

!    total energy              =    -257.65432361 Ry
     estimated scf accuracy    <          9.0E-09 Ry

     total magnetization       =     1.00 Bohr mag/cell
     absolute magnetization    =     1.02 Bohr mag/cell

     convergence has been achieved in  12 iterations

     Using ACE for calculation of exact exchange

     EXX grid:   113801 G-vectors     FFT dimensions: (  64,  64,  64)
     ACE projected onto    17 (nbndproj) and applied to    17 (nbnd) bands

     EXX: now go back to refine exchange calculation

     total cpu time spent up to now is       59.7 secs

     Self-consistent Calculation

     iteration #  1     ecut=   100.00 Ry     beta= 0.70
     Davidson diagonalization with overlap

---- Real-time Memory Report at c_bands before calling an iterative solver
           300 MiB given to the printing process from OS
             0 MiB allocation reported by mallinfo(arena+hblkhd)
          6178 MiB available memory on the node where the printing process lives
------------------
     ethr =  1.52E-10,  avg # of iterations = 14.0

     total cpu time spent up to now is       72.0 secs

     total energy              =    -257.61205616 Ry
     estimated scf accuracy    <       0.00242599 Ry

     total magnetization       =     1.00 Bohr mag/cell
     absolute magnetization    =     1.03 Bohr mag/cell

     iteration #  2     ecut=   100.00 Ry     beta= 0.70
     Davidson diagonalization with overlap

---- Real-time Memory Report at c_bands before calling an iterative solver
           300 MiB given to the printing process from OS
             0 MiB allocation reported by mallinfo(arena+hblkhd)
          5658 MiB available memory on the node where the printing process lives
------------------
     ethr =  7.35E-06,  avg # of iterations =  3.0

     total cpu time spent up to now is       76.3 secs

     total energy              =    -257.61286157 Ry
     estimated scf accuracy    <       0.00103015 Ry

     total magnetization       =     1.00 Bohr mag/cell
     absolute magnetization    =     1.03 Bohr mag/cell

     iteration #  3     ecut=   100.00 Ry     beta= 0.70
     Davidson diagonalization with overlap

---- Real-time Memory Report at c_bands before calling an iterative solver
           300 MiB given to the printing process from OS
             0 MiB allocation reported by mallinfo(arena+hblkhd)
          5601 MiB available memory on the node where the printing process lives
------------------
     ethr =  3.12E-06,  avg # of iterations =  2.0

     total cpu time spent up to now is       80.1 secs

     total energy              =    -257.61301948 Ry
     estimated scf accuracy    <       0.00002509 Ry

     total magnetization       =     1.00 Bohr mag/cell
     absolute magnetization    =     1.03 Bohr mag/cell

     iteration #  4     ecut=   100.00 Ry     beta= 0.70
     Davidson diagonalization with overlap

---- Real-time Memory Report at c_bands before calling an iterative solver
           300 MiB given to the printing process from OS
             0 MiB allocation reported by mallinfo(arena+hblkhd)
          5561 MiB available memory on the node where the printing process lives
------------------
     ethr =  7.60E-08,  avg # of iterations =  5.0

     total cpu time spent up to now is       85.2 secs

     total energy              =    -257.61304591 Ry
     estimated scf accuracy    <       0.00003770 Ry

     total magnetization       =     1.00 Bohr mag/cell
     absolute magnetization    =     1.03 Bohr mag/cell

     iteration #  5     ecut=   100.00 Ry     beta= 0.70
     Davidson diagonalization with overlap

---- Real-time Memory Report at c_bands before calling an iterative solver
           300 MiB given to the printing process from OS
             0 MiB allocation reported by mallinfo(arena+hblkhd)
          5498 MiB available memory on the node where the printing process lives
------------------
     ethr =  7.60E-08,  avg # of iterations =  2.0

     total cpu time spent up to now is       88.7 secs

     total energy              =    -257.61304144 Ry
     estimated scf accuracy    <       0.00001229 Ry

     total magnetization       =     1.00 Bohr mag/cell
     absolute magnetization    =     1.03 Bohr mag/cell

     iteration #  6     ecut=   100.00 Ry     beta= 0.70
     Davidson diagonalization with overlap

---- Real-time Memory Report at c_bands before calling an iterative solver
           307 MiB given to the printing process from OS
             0 MiB allocation reported by mallinfo(arena+hblkhd)
          5466 MiB available memory on the node where the printing process lives
------------------
     ethr =  3.73E-08,  avg # of iterations =  3.0

     total cpu time spent up to now is       92.6 secs

     total energy              =    -257.61304446 Ry
     estimated scf accuracy    <       0.00000010 Ry

     total magnetization       =     1.00 Bohr mag/cell
     absolute magnetization    =     1.03 Bohr mag/cell

     iteration #  7     ecut=   100.00 Ry     beta= 0.70
     Davidson diagonalization with overlap

---- Real-time Memory Report at c_bands before calling an iterative solver
           316 MiB given to the printing process from OS
             0 MiB allocation reported by mallinfo(arena+hblkhd)
          5405 MiB available memory on the node where the printing process lives
------------------
     ethr =  3.07E-10,  avg # of iterations =  5.0

     total cpu time spent up to now is       97.7 secs

     total energy              =    -257.61304449 Ry
     estimated scf accuracy    <       0.00000003 Ry

     total magnetization       =     1.00 Bohr mag/cell
     absolute magnetization    =     1.03 Bohr mag/cell

     iteration #  8     ecut=   100.00 Ry     beta= 0.70
     Davidson diagonalization with overlap

---- Real-time Memory Report at c_bands before calling an iterative solver
           325 MiB given to the printing process from OS
             0 MiB allocation reported by mallinfo(arena+hblkhd)
          5352 MiB available memory on the node where the printing process lives
------------------
     ethr =  1.01E-10,  avg # of iterations =  2.5

     Magnetic moment per site  (integrated on atomic sphere of radius R)
     atom   1 (R=0.049)  charge=  5.1921  magn=  0.0450
     atom   2 (R=0.049)  charge=  4.2957  magn=  0.0112
     atom   3 (R=0.049)  charge=  4.2974  magn=  0.0112
     atom   4 (R=0.049)  charge=  4.2974  magn=  0.0112

     total cpu time spent up to now is      101.4 secs

     End of self-consistent calculation

 ------ SPIN UP ------------


          k = 0.0000 0.0000 0.0000 (113801 PWs)   bands (ev):

   -66.6125 -49.1469 -49.1427 -38.2093 -31.4007 -27.6519 -27.6505 -18.7497
   -18.7454 -17.1959 -17.1915 -14.2976 -13.0724 -13.0266  -7.3122  -7.3050
    -2.5916

     occupation numbers 
     1.0000   1.0000   1.0000   1.0000   1.0000   1.0000   1.0000   1.0000
     1.0000   1.0000   1.0000   1.0000   1.0000   1.0000   1.0000   1.0000
     1.0000

 ------ SPIN DOWN ----------


          k = 0.0000 0.0000 0.0000 (113801 PWs)   bands (ev):

   -66.4512 -49.0605 -49.0564 -38.0411 -31.3109 -27.5265 -27.5252 -18.6654
   -18.6608 -17.1279 -17.1235 -14.2812 -13.0243 -12.8392  -7.1965  -7.1892
    -0.5839

     occupation numbers 
     1.0000   1.0000   1.0000   1.0000   1.0000   1.0000   1.0000   1.0000
     1.0000   1.0000   1.0000   1.0000   1.0000   1.0000   1.0000   1.0000
     0.0000

     highest occupied, lowest unoccupied level (ev):    -2.5916   -0.5839

!    total energy              =    -257.61304459 Ry
     estimated scf accuracy    <          5.5E-09 Ry

     total magnetization       =     1.00 Bohr mag/cell
     absolute magnetization    =     1.03 Bohr mag/cell

     convergence has been achieved in   8 iterations

     Using ACE for calculation of exact exchange
     ACE projected onto    17 (nbndproj) and applied to    17 (nbnd) bands

     total energy              =    -257.61352679 Ry
     Harris-Foulkes estimate   =    -257.61352670 Ry
     est. exchange err (dexx)  =       0.00048220 Ry
     - averaged Fock potential =      16.74724748 Ry
     + Fock energy (ACE)       =      -8.38189519 Ry

     EXX: now go back to refine exchange calculation

     total cpu time spent up to now is      104.1 secs

     Self-consistent Calculation

     iteration #  1     ecut=   100.00 Ry     beta= 0.70
     Davidson diagonalization with overlap

---- Real-time Memory Report at c_bands before calling an iterative solver
           325 MiB given to the printing process from OS
             0 MiB allocation reported by mallinfo(arena+hblkhd)
          6219 MiB available memory on the node where the printing process lives
------------------
     ethr =  1.01E-10,  avg # of iterations = 10.5

     total cpu time spent up to now is      113.5 secs

     total energy              =    -257.61356747 Ry
     estimated scf accuracy    <       0.00004516 Ry

     total magnetization       =     1.00 Bohr mag/cell
     absolute magnetization    =     1.03 Bohr mag/cell

     iteration #  2     ecut=   100.00 Ry     beta= 0.70
     Davidson diagonalization with overlap

---- Real-time Memory Report at c_bands before calling an iterative solver
           325 MiB given to the printing process from OS
             0 MiB allocation reported by mallinfo(arena+hblkhd)
          5647 MiB available memory on the node where the printing process lives
------------------
     ethr =  1.37E-07,  avg # of iterations =  3.0

     total cpu time spent up to now is      118.0 secs

     total energy              =    -257.61358335 Ry
     estimated scf accuracy    <       0.00001952 Ry

     total magnetization       =     1.00 Bohr mag/cell
     absolute magnetization    =     1.03 Bohr mag/cell

     iteration #  3     ecut=   100.00 Ry     beta= 0.70
     Davidson diagonalization with overlap

---- Real-time Memory Report at c_bands before calling an iterative solver
           325 MiB given to the printing process from OS
             0 MiB allocation reported by mallinfo(arena+hblkhd)
          5589 MiB available memory on the node where the printing process lives
------------------
     ethr =  5.92E-08,  avg # of iterations =  2.0

     total cpu time spent up to now is      121.9 secs

     total energy              =    -257.61358633 Ry
     estimated scf accuracy    <       0.00000053 Ry

     total magnetization       =     1.00 Bohr mag/cell
     absolute magnetization    =     1.03 Bohr mag/cell

     iteration #  4     ecut=   100.00 Ry     beta= 0.70
     Davidson diagonalization with overlap

---- Real-time Memory Report at c_bands before calling an iterative solver
           325 MiB given to the printing process from OS
             0 MiB allocation reported by mallinfo(arena+hblkhd)
          5540 MiB available memory on the node where the printing process lives
------------------
     ethr =  1.61E-09,  avg # of iterations =  5.0

     total cpu time spent up to now is      127.2 secs

     total energy              =    -257.61358687 Ry
     estimated scf accuracy    <       0.00000070 Ry

     total magnetization       =     1.00 Bohr mag/cell
     absolute magnetization    =     1.03 Bohr mag/cell

     iteration #  5     ecut=   100.00 Ry     beta= 0.70
     Davidson diagonalization with overlap

---- Real-time Memory Report at c_bands before calling an iterative solver
           325 MiB given to the printing process from OS
             0 MiB allocation reported by mallinfo(arena+hblkhd)
          5512 MiB available memory on the node where the printing process lives
------------------
     ethr =  1.61E-09,  avg # of iterations =  2.0

     total cpu time spent up to now is      130.8 secs

     total energy              =    -257.61358672 Ry
     estimated scf accuracy    <       0.00000022 Ry

     total magnetization       =     1.00 Bohr mag/cell
     absolute magnetization    =     1.03 Bohr mag/cell

     iteration #  6     ecut=   100.00 Ry     beta= 0.70
     Davidson diagonalization with overlap

---- Real-time Memory Report at c_bands before calling an iterative solver
           325 MiB given to the printing process from OS
             0 MiB allocation reported by mallinfo(arena+hblkhd)
          5462 MiB available memory on the node where the printing process lives
------------------
     ethr =  6.75E-10,  avg # of iterations =  3.5

     Magnetic moment per site  (integrated on atomic sphere of radius R)
     atom   1 (R=0.049)  charge=  5.1913  magn=  0.0451
     atom   2 (R=0.049)  charge=  4.2969  magn=  0.0109
     atom   3 (R=0.049)  charge=  4.2985  magn=  0.0109
     atom   4 (R=0.049)  charge=  4.2985  magn=  0.0109

     total cpu time spent up to now is      134.7 secs

     End of self-consistent calculation

 ------ SPIN UP ------------


          k = 0.0000 0.0000 0.0000 (113801 PWs)   bands (ev):

   -66.6218 -49.1445 -49.1404 -38.2167 -31.3961 -27.6468 -27.6454 -18.7378
   -18.7335 -17.1849 -17.1804 -14.2862 -13.0674 -13.0240  -7.3150  -7.3080
    -2.5922

     occupation numbers 
     1.0000   1.0000   1.0000   1.0000   1.0000   1.0000   1.0000   1.0000
     1.0000   1.0000   1.0000   1.0000   1.0000   1.0000   1.0000   1.0000
     1.0000

 ------ SPIN DOWN ----------


          k = 0.0000 0.0000 0.0000 (113801 PWs)   bands (ev):

   -66.4602 -49.0585 -49.0544 -38.0477 -31.3086 -27.5231 -27.5218 -18.6553
   -18.6506 -17.1190 -17.1146 -14.2724 -13.0218 -12.8377  -7.2011  -7.1941
    -0.5788

     occupation numbers 
     1.0000   1.0000   1.0000   1.0000   1.0000   1.0000   1.0000   1.0000
     1.0000   1.0000   1.0000   1.0000   1.0000   1.0000   1.0000   1.0000
     0.0000

     highest occupied, lowest unoccupied level (ev):    -2.5922   -0.5788

!    total energy              =    -257.61358684 Ry
     estimated scf accuracy    <          1.3E-09 Ry

     total magnetization       =     1.00 Bohr mag/cell
     absolute magnetization    =     1.03 Bohr mag/cell

     convergence has been achieved in   6 iterations

     Using ACE for calculation of exact exchange
     ACE projected onto    17 (nbndproj) and applied to    17 (nbnd) bands

     total energy              =    -257.61359565 Ry
     Harris-Foulkes estimate   =    -257.61359559 Ry
     est. exchange err (dexx)  =       0.00000881 Ry
     - averaged Fock potential =      16.76572759 Ry
     + Fock energy (ACE)       =      -8.38384122 Ry

     EXX: now go back to refine exchange calculation

     total cpu time spent up to now is      137.4 secs

     Self-consistent Calculation

     iteration #  1     ecut=   100.00 Ry     beta= 0.70
     Davidson diagonalization with overlap

---- Real-time Memory Report at c_bands before calling an iterative solver
           325 MiB given to the printing process from OS
             0 MiB allocation reported by mallinfo(arena+hblkhd)
          6264 MiB available memory on the node where the printing process lives
------------------
     ethr =  6.75E-10,  avg # of iterations =  5.5

     total cpu time spent up to now is      142.9 secs

     total energy              =    -257.61359686 Ry
     estimated scf accuracy    <       0.00000072 Ry

     total magnetization       =     1.00 Bohr mag/cell
     absolute magnetization    =     1.03 Bohr mag/cell

     iteration #  2     ecut=   100.00 Ry     beta= 0.70
     Davidson diagonalization with overlap

---- Real-time Memory Report at c_bands before calling an iterative solver
           325 MiB given to the printing process from OS
             0 MiB allocation reported by mallinfo(arena+hblkhd)
          5715 MiB available memory on the node where the printing process lives
------------------
     ethr =  2.19E-09,  avg # of iterations =  3.5

     total cpu time spent up to now is      147.2 secs

     total energy              =    -257.61359714 Ry
     estimated scf accuracy    <       0.00000026 Ry

     total magnetization       =     1.00 Bohr mag/cell
     absolute magnetization    =     1.03 Bohr mag/cell

     iteration #  3     ecut=   100.00 Ry     beta= 0.70
     Davidson diagonalization with overlap

---- Real-time Memory Report at c_bands before calling an iterative solver
           325 MiB given to the printing process from OS
             0 MiB allocation reported by mallinfo(arena+hblkhd)
          5654 MiB available memory on the node where the printing process lives
------------------
     ethr =  7.88E-10,  avg # of iterations =  2.0

     Magnetic moment per site  (integrated on atomic sphere of radius R)
     atom   1 (R=0.049)  charge=  5.1913  magn=  0.0452
     atom   2 (R=0.049)  charge=  4.2970  magn=  0.0109
     atom   3 (R=0.049)  charge=  4.2987  magn=  0.0109
     atom   4 (R=0.049)  charge=  4.2987  magn=  0.0109

     total cpu time spent up to now is      151.0 secs

     End of self-consistent calculation

 ------ SPIN UP ------------


          k = 0.0000 0.0000 0.0000 (113801 PWs)   bands (ev):

   -66.6224 -49.1434 -49.1393 -38.2171 -31.3943 -27.6451 -27.6437 -18.7355
   -18.7312 -17.1828 -17.1784 -14.2838 -13.0667 -13.0229  -7.3147  -7.3078
    -2.5926

     occupation numbers 
     1.0000   1.0000   1.0000   1.0000   1.0000   1.0000   1.0000   1.0000
     1.0000   1.0000   1.0000   1.0000   1.0000   1.0000   1.0000   1.0000
     1.0000

 ------ SPIN DOWN ----------


          k = 0.0000 0.0000 0.0000 (113801 PWs)   bands (ev):

   -66.4607 -49.0574 -49.0533 -38.0475 -31.3072 -27.5218 -27.5204 -18.6533
   -18.6487 -17.1173 -17.1129 -14.2705 -13.0215 -12.8365  -7.2012  -7.1942
    -0.5777

     occupation numbers 
     1.0000   1.0000   1.0000   1.0000   1.0000   1.0000   1.0000   1.0000
     1.0000   1.0000   1.0000   1.0000   1.0000   1.0000   1.0000   1.0000
     0.0000

     highest occupied, lowest unoccupied level (ev):    -2.5926   -0.5777

!    total energy              =    -257.61359717 Ry
     estimated scf accuracy    <          5.6E-09 Ry

     total magnetization       =     1.00 Bohr mag/cell
     absolute magnetization    =     1.03 Bohr mag/cell

     convergence has been achieved in   3 iterations

     Using ACE for calculation of exact exchange
     ACE projected onto    17 (nbndproj) and applied to    17 (nbnd) bands

     total energy              =    -257.61359746 Ry
     Harris-Foulkes estimate   =    -257.61359747 Ry
     est. exchange err (dexx)  =       0.00000028 Ry
     - averaged Fock potential =      16.76794659 Ry
     + Fock energy (ACE)       =      -8.38410566 Ry

     EXX: now go back to refine exchange calculation

     total cpu time spent up to now is      153.7 secs

     Self-consistent Calculation

     iteration #  1     ecut=   100.00 Ry     beta= 0.70
     Davidson diagonalization with overlap

---- Real-time Memory Report at c_bands before calling an iterative solver
           325 MiB given to the printing process from OS
             0 MiB allocation reported by mallinfo(arena+hblkhd)
          6274 MiB available memory on the node where the printing process lives
------------------
     ethr =  7.88E-10,  avg # of iterations =  4.0

     total cpu time spent up to now is      157.7 secs

     total energy              =    -257.61359758 Ry
     estimated scf accuracy    <       0.00000005 Ry

     total magnetization       =     1.00 Bohr mag/cell
     absolute magnetization    =     1.03 Bohr mag/cell

     iteration #  2     ecut=   100.00 Ry     beta= 0.70
     Davidson diagonalization with overlap

---- Real-time Memory Report at c_bands before calling an iterative solver
           325 MiB given to the printing process from OS
             0 MiB allocation reported by mallinfo(arena+hblkhd)
          5710 MiB available memory on the node where the printing process lives
------------------
     ethr =  1.40E-10,  avg # of iterations =  3.0

     total cpu time spent up to now is      162.2 secs

     total energy              =    -257.61359758 Ry
     estimated scf accuracy    <       0.00000001 Ry

     total magnetization       =     1.00 Bohr mag/cell
     absolute magnetization    =     1.03 Bohr mag/cell

     iteration #  3     ecut=   100.00 Ry     beta= 0.70
     Davidson diagonalization with overlap

---- Real-time Memory Report at c_bands before calling an iterative solver
           325 MiB given to the printing process from OS
             0 MiB allocation reported by mallinfo(arena+hblkhd)
          5623 MiB available memory on the node where the printing process lives
------------------
     ethr =  4.17E-11,  avg # of iterations =  2.0

     Magnetic moment per site  (integrated on atomic sphere of radius R)
     atom   1 (R=0.049)  charge=  5.1913  magn=  0.0452
     atom   2 (R=0.049)  charge=  4.2970  magn=  0.0109
     atom   3 (R=0.049)  charge=  4.2987  magn=  0.0109
     atom   4 (R=0.049)  charge=  4.2987  magn=  0.0109

     total cpu time spent up to now is      166.0 secs

     End of self-consistent calculation

 ------ SPIN UP ------------


          k = 0.0000 0.0000 0.0000 (113801 PWs)   bands (ev):

   -66.6219 -49.1427 -49.1385 -38.2165 -31.3934 -27.6443 -27.6429 -18.7346
   -18.7304 -17.1820 -17.1776 -14.2830 -13.0661 -13.0222  -7.3141  -7.3072
    -2.5925

     occupation numbers 
     1.0000   1.0000   1.0000   1.0000   1.0000   1.0000   1.0000   1.0000
     1.0000   1.0000   1.0000   1.0000   1.0000   1.0000   1.0000   1.0000
     1.0000

 ------ SPIN DOWN ----------


          k = 0.0000 0.0000 0.0000 (113801 PWs)   bands (ev):

   -66.4600 -49.0566 -49.0525 -38.0466 -31.3065 -27.5210 -27.5197 -18.6526
   -18.6479 -17.1166 -17.1122 -14.2699 -13.0211 -12.8357  -7.2007  -7.1936
    -0.5771

     occupation numbers 
     1.0000   1.0000   1.0000   1.0000   1.0000   1.0000   1.0000   1.0000
     1.0000   1.0000   1.0000   1.0000   1.0000   1.0000   1.0000   1.0000
     0.0000

     highest occupied, lowest unoccupied level (ev):    -2.5925   -0.5771

!    total energy              =    -257.61359760 Ry
     estimated scf accuracy    <          4.0E-10 Ry

     total magnetization       =     1.00 Bohr mag/cell
     absolute magnetization    =     1.03 Bohr mag/cell

     convergence has been achieved in   3 iterations

     Using ACE for calculation of exact exchange
     ACE projected onto    17 (nbndproj) and applied to    17 (nbnd) bands

     total energy              =    -257.61359762 Ry
     Harris-Foulkes estimate   =    -257.61359760 Ry
     est. exchange err (dexx)  =       0.00000002 Ry
     - averaged Fock potential =      16.76826609 Ry
     + Fock energy (ACE)       =      -8.38416046 Ry

     EXX: now go back to refine exchange calculation

     total cpu time spent up to now is      168.7 secs

     Self-consistent Calculation

     iteration #  1     ecut=   100.00 Ry     beta= 0.70
     Davidson diagonalization with overlap

---- Real-time Memory Report at c_bands before calling an iterative solver
           325 MiB given to the printing process from OS
             0 MiB allocation reported by mallinfo(arena+hblkhd)
          6250 MiB available memory on the node where the printing process lives
------------------
     ethr =  4.17E-11,  avg # of iterations =  4.5

     Magnetic moment per site  (integrated on atomic sphere of radius R)
     atom   1 (R=0.049)  charge=  5.1912  magn=  0.0453
     atom   2 (R=0.049)  charge=  4.2970  magn=  0.0109
     atom   3 (R=0.049)  charge=  4.2987  magn=  0.0109
     atom   4 (R=0.049)  charge=  4.2987  magn=  0.0109

     total cpu time spent up to now is      172.7 secs

     End of self-consistent calculation

 ------ SPIN UP ------------


          k = 0.0000 0.0000 0.0000 (113801 PWs)   bands (ev):

   -66.6216 -49.1425 -49.1383 -38.2162 -31.3934 -27.6442 -27.6428 -18.7345
   -18.7303 -17.1819 -17.1775 -14.2829 -13.0661 -13.0221  -7.3140  -7.3071
    -2.5926

     occupation numbers 
     1.0000   1.0000   1.0000   1.0000   1.0000   1.0000   1.0000   1.0000
     1.0000   1.0000   1.0000   1.0000   1.0000   1.0000   1.0000   1.0000
     1.0000

 ------ SPIN DOWN ----------


          k = 0.0000 0.0000 0.0000 (113801 PWs)   bands (ev):

   -66.4597 -49.0563 -49.0522 -38.0462 -31.3064 -27.5210 -27.5196 -18.6525
   -18.6479 -17.1166 -17.1121 -14.2698 -13.0211 -12.8356  -7.2006  -7.1935
    -0.5770

     occupation numbers 
     1.0000   1.0000   1.0000   1.0000   1.0000   1.0000   1.0000   1.0000
     1.0000   1.0000   1.0000   1.0000   1.0000   1.0000   1.0000   1.0000
     0.0000

     highest occupied, lowest unoccupied level (ev):    -2.5926   -0.5770

!    total energy              =    -257.61359763 Ry
     estimated scf accuracy    <          2.7E-09 Ry

     total magnetization       =     1.00 Bohr mag/cell
     absolute magnetization    =     1.03 Bohr mag/cell

     convergence has been achieved in   1 iterations

     Using ACE for calculation of exact exchange
     ACE projected onto    17 (nbndproj) and applied to    17 (nbnd) bands

!!   total energy              =    -257.61359763 Ry
     Harris-Foulkes estimate   =    -257.61359763 Ry
     est. exchange err (dexx)  =          2.3E-09 Ry
     - averaged Fock potential =      16.76834232 Ry
     + Fock energy (ACE)       =      -8.38418186 Ry

     EXX self-consistency reached

     Forces acting on atoms (cartesian axes, Ry/au):

     atom    1 type  1   force =     0.00000000    0.00507565    0.00000000
     atom    2 type  2   force =     0.00000000    3.52987118    0.00000000
     atom    3 type  2   force =     3.05878575   -1.76747342    0.00000000
     atom    4 type  2   force =    -3.05878575   -1.76747342    0.00000000
     The non-local contrib.  to forces
     atom    1 type  1   force =     0.00000000   -0.00147668    0.00000000
     atom    2 type  2   force =     0.00000000    0.39090406    0.00000000
     atom    3 type  2   force =     0.33734570   -0.19505405    0.00000000
     atom    4 type  2   force =    -0.33734570   -0.19505405    0.00000000
     The ionic contribution  to forces
     atom    1 type  1   force =    -0.00000000    0.05166334   -0.00000000
     atom    2 type  2   force =     0.00000000   43.24700391    0.00000000
     atom    3 type  2   force =    37.46726098  -21.64933362   -0.00000000
     atom    4 type  2   force =   -37.46726098  -21.64933362   -0.00000000
     The local contribution  to forces
     atom    1 type  1   force =     0.00000000   -0.04516730    0.00000000
     atom    2 type  2   force =     0.00000000  -40.10801222    0.00000000
     atom    3 type  2   force =   -34.74574950   20.07681311    0.00000000
     atom    4 type  2   force =    34.74574950   20.07681311    0.00000000
     The core correction contribution to forces
     atom    1 type  1   force =     0.00000000    0.00000000    0.00000000
     atom    2 type  2   force =     0.00000000    0.00000000    0.00000000
     atom    3 type  2   force =     0.00000000    0.00000000    0.00000000
     atom    4 type  2   force =     0.00000000    0.00000000    0.00000000
     The Hubbard contrib.    to forces
     atom    1 type  1   force =     0.00000000    0.00000000    0.00000000
     atom    2 type  2   force =     0.00000000    0.00000000    0.00000000
     atom    3 type  2   force =     0.00000000    0.00000000    0.00000000
     atom    4 type  2   force =     0.00000000    0.00000000    0.00000000
     The SCF correction term to forces
     atom    1 type  1   force =     0.00000000   -0.00000288   -0.00000000
     atom    2 type  2   force =     0.00000000   -0.00008374    0.00000000
     atom    3 type  2   force =    -0.00007142    0.00004197   -0.00000000
     atom    4 type  2   force =     0.00007142    0.00004197   -0.00000000

     Total force =     6.117212     Total SCF correction =     0.000144

     BFGS Geometry Optimization
     Energy error            =      0.0E+00 Ry
     Gradient error          =      3.5E+00 Ry/Bohr

     number of scf cycles    =   1
     number of bfgs steps    =   0

     energy             new  =    -257.6135976285 Ry

     new trust radius        =       0.5000000000 bohr
     new conv_thr            =       0.0000000100 Ry


ATOMIC_POSITIONS (crystal)
Ti            0.0000000000        0.0000491872        0.0000000000
F             0.0000000000        0.1461060458        0.0000000000
F             0.1264938467       -0.0730776165        0.0000000000
F            -0.1264938467       -0.0730776165        0.0000000000



     Writing config-only to output data dir ./scratch/tif3.save/
     NEW-OLD atomic charge density approx. for the potential

     negative rho (up, down):  7.118E-06 7.118E-06
     Generating pointlists ...

     total cpu time spent up to now is      176.8 secs

     Self-consistent Calculation

     iteration #  1     ecut=   100.00 Ry     beta= 0.70
     Davidson diagonalization with overlap

---- Real-time Memory Report at c_bands before calling an iterative solver
           325 MiB given to the printing process from OS
             0 MiB allocation reported by mallinfo(arena+hblkhd)
          6196 MiB available memory on the node where the printing process lives
------------------
     ethr =  1.00E-06,  avg # of iterations = 18.0

     negative rho (up, down):  0.000E+00 1.474E-04

     total cpu time spent up to now is      191.5 secs

     total energy              =    -260.32889066 Ry
     estimated scf accuracy    <       0.67749377 Ry

     total magnetization       =     1.00 Bohr mag/cell
     absolute magnetization    =     1.02 Bohr mag/cell

     iteration #  2     ecut=   100.00 Ry     beta= 0.70
     Davidson diagonalization with overlap

---- Real-time Memory Report at c_bands before calling an iterative solver
           325 MiB given to the printing process from OS
             0 MiB allocation reported by mallinfo(arena+hblkhd)
          5663 MiB available memory on the node where the printing process lives
------------------
     ethr =  2.05E-03,  avg # of iterations =  5.5

     negative rho (up, down):  0.000E+00 1.047E-04

     total cpu time spent up to now is      197.8 secs

     total energy              =    -260.28580992 Ry
     estimated scf accuracy    <       1.89445727 Ry

     total magnetization       =     1.00 Bohr mag/cell
     absolute magnetization    =     1.02 Bohr mag/cell

     iteration #  3     ecut=   100.00 Ry     beta= 0.70
     Davidson diagonalization with overlap

---- Real-time Memory Report at c_bands before calling an iterative solver
           325 MiB given to the printing process from OS
             0 MiB allocation reported by mallinfo(arena+hblkhd)
          5604 MiB available memory on the node where the printing process lives
------------------
     ethr =  2.05E-03,  avg # of iterations =  4.5

     negative rho (up, down):  0.000E+00 4.222E-05

     total cpu time spent up to now is      202.9 secs

     total energy              =    -260.68101234 Ry
     estimated scf accuracy    <       0.01154816 Ry

     total magnetization       =     1.00 Bohr mag/cell
     absolute magnetization    =     1.03 Bohr mag/cell

     iteration #  4     ecut=   100.00 Ry     beta= 0.70
     Davidson diagonalization with overlap

---- Real-time Memory Report at c_bands before calling an iterative solver
           325 MiB given to the printing process from OS
             0 MiB allocation reported by mallinfo(arena+hblkhd)
          5534 MiB available memory on the node where the printing process lives
------------------
     ethr =  3.50E-05,  avg # of iterations =  5.0

     negative rho (up, down):  0.000E+00 1.468E-06

     total cpu time spent up to now is      208.7 secs

     total energy              =    -260.68293466 Ry
     estimated scf accuracy    <       0.01282094 Ry

     total magnetization       =     1.00 Bohr mag/cell
     absolute magnetization    =     1.04 Bohr mag/cell

     iteration #  5     ecut=   100.00 Ry     beta= 0.70
     Davidson diagonalization with overlap

---- Real-time Memory Report at c_bands before calling an iterative solver
           325 MiB given to the printing process from OS
             0 MiB allocation reported by mallinfo(arena+hblkhd)
          5458 MiB available memory on the node where the printing process lives
------------------
     ethr =  3.50E-05,  avg # of iterations =  3.5

     negative rho (up, down):  0.000E+00 5.685E-07

     total cpu time spent up to now is      213.2 secs

     total energy              =    -260.68549462 Ry
     estimated scf accuracy    <       0.00021771 Ry

     total magnetization       =     1.00 Bohr mag/cell
     absolute magnetization    =     1.06 Bohr mag/cell

     iteration #  6     ecut=   100.00 Ry     beta= 0.70
     Davidson diagonalization with overlap

---- Real-time Memory Report at c_bands before calling an iterative solver
           325 MiB given to the printing process from OS
             0 MiB allocation reported by mallinfo(arena+hblkhd)
          5437 MiB available memory on the node where the printing process lives
------------------
     ethr =  6.60E-07,  avg # of iterations =  5.0

     negative rho (up, down):  0.000E+00 1.893E-07

     total cpu time spent up to now is      219.7 secs

     total energy              =    -260.68562578 Ry
     estimated scf accuracy    <       0.00087769 Ry

     total magnetization       =     1.00 Bohr mag/cell
     absolute magnetization    =     1.06 Bohr mag/cell

     iteration #  7     ecut=   100.00 Ry     beta= 0.70
     Davidson diagonalization with overlap

---- Real-time Memory Report at c_bands before calling an iterative solver
           325 MiB given to the printing process from OS
             0 MiB allocation reported by mallinfo(arena+hblkhd)
          5365 MiB available memory on the node where the printing process lives
------------------
     ethr =  6.60E-07,  avg # of iterations =  4.5

     total cpu time spent up to now is      224.8 secs

     total energy              =    -260.68571985 Ry
     estimated scf accuracy    <       0.00004054 Ry

     total magnetization       =     1.00 Bohr mag/cell
     absolute magnetization    =     1.06 Bohr mag/cell

     iteration #  8     ecut=   100.00 Ry     beta= 0.70
     Davidson diagonalization with overlap

---- Real-time Memory Report at c_bands before calling an iterative solver
           326 MiB given to the printing process from OS
             0 MiB allocation reported by mallinfo(arena+hblkhd)
          5332 MiB available memory on the node where the printing process lives
------------------
     ethr =  1.23E-07,  avg # of iterations =  4.5

     total cpu time spent up to now is      229.0 secs

     total energy              =    -260.68573556 Ry
     estimated scf accuracy    <       0.00000126 Ry

     total magnetization       =     1.00 Bohr mag/cell
     absolute magnetization    =     1.06 Bohr mag/cell

     iteration #  9     ecut=   100.00 Ry     beta= 0.70
     Davidson diagonalization with overlap

---- Real-time Memory Report at c_bands before calling an iterative solver
           335 MiB given to the printing process from OS
             0 MiB allocation reported by mallinfo(arena+hblkhd)
          5268 MiB available memory on the node where the printing process lives
------------------
     ethr =  3.82E-09,  avg # of iterations =  4.5

     total cpu time spent up to now is      233.3 secs

     total energy              =    -260.68573514 Ry
     estimated scf accuracy    <       0.00000181 Ry

     total magnetization       =     1.00 Bohr mag/cell
     absolute magnetization    =     1.06 Bohr mag/cell

     iteration # 10     ecut=   100.00 Ry     beta= 0.70
     Davidson diagonalization with overlap

---- Real-time Memory Report at c_bands before calling an iterative solver
           344 MiB given to the printing process from OS
             0 MiB allocation reported by mallinfo(arena+hblkhd)
          5201 MiB available memory on the node where the printing process lives
------------------
     ethr =  3.82E-09,  avg # of iterations =  4.0

     total cpu time spent up to now is      237.4 secs

     total energy              =    -260.68573558 Ry
     estimated scf accuracy    <       0.00000001 Ry

     total magnetization       =     1.00 Bohr mag/cell
     absolute magnetization    =     1.06 Bohr mag/cell

     iteration # 11     ecut=   100.00 Ry     beta= 0.70
     Davidson diagonalization with overlap

---- Real-time Memory Report at c_bands before calling an iterative solver
           344 MiB given to the printing process from OS
             0 MiB allocation reported by mallinfo(arena+hblkhd)
          5184 MiB available memory on the node where the printing process lives
------------------
     ethr =  3.85E-11,  avg # of iterations =  4.5

     total cpu time spent up to now is      242.3 secs

     total energy              =    -260.68573558 Ry
     estimated scf accuracy    <       0.00000002 Ry

     total magnetization       =     1.00 Bohr mag/cell
     absolute magnetization    =     1.06 Bohr mag/cell

     iteration # 12     ecut=   100.00 Ry     beta= 0.70
     Davidson diagonalization with overlap

---- Real-time Memory Report at c_bands before calling an iterative solver
           344 MiB given to the printing process from OS
             0 MiB allocation reported by mallinfo(arena+hblkhd)
          5179 MiB available memory on the node where the printing process lives
------------------
     ethr =  3.85E-11,  avg # of iterations =  4.0

     Magnetic moment per site  (integrated on atomic sphere of radius R)
     atom   1 (R=0.049)  charge=  4.8528  magn=  0.1383
     atom   2 (R=0.049)  charge=  4.1105  magn= -0.0039
     atom   3 (R=0.049)  charge=  4.1103  magn= -0.0040
     atom   4 (R=0.049)  charge=  4.1103  magn= -0.0040

     total cpu time spent up to now is      246.3 secs

     End of self-consistent calculation

 ------ SPIN UP ------------


          k = 0.0000 0.0000 0.0000 (113801 PWs)   bands (ev):

   -61.0981 -40.0723 -40.0624 -36.7939 -29.3370 -27.0734 -27.0710 -12.7910
   -12.7885 -11.9032 -11.8945 -11.3128 -10.7524 -10.4937  -9.3038  -9.3008
    -3.1540

     occupation numbers 
     1.0000   1.0000   1.0000   1.0000   1.0000   1.0000   1.0000   1.0000
     1.0000   1.0000   1.0000   1.0000   1.0000   1.0000   1.0000   1.0000
     1.0000

 ------ SPIN DOWN ----------


          k = 0.0000 0.0000 0.0000 (113801 PWs)   bands (ev):

   -60.6961 -39.8162 -39.8059 -36.2377 -29.3158 -26.9915 -26.9891 -12.7375
   -12.7350 -11.8481 -11.8395 -11.2023 -10.7194 -10.4960  -9.2573  -9.2542
    -1.8838

     occupation numbers 
     1.0000   1.0000   1.0000   1.0000   1.0000   1.0000   1.0000   1.0000
     1.0000   1.0000   1.0000   1.0000   1.0000   1.0000   1.0000   1.0000
     0.0000

     highest occupied, lowest unoccupied level (ev):    -3.1540   -1.8838

!    total energy              =    -260.68573558 Ry
     estimated scf accuracy    <          1.5E-10 Ry

     total magnetization       =     1.00 Bohr mag/cell
     absolute magnetization    =     1.06 Bohr mag/cell

     convergence has been achieved in  12 iterations

     Using ACE for calculation of exact exchange
     ACE projected onto    17 (nbndproj) and applied to    17 (nbnd) bands

     EXX: now go back to refine exchange calculation

     total cpu time spent up to now is      249.6 secs

     Self-consistent Calculation

     iteration #  1     ecut=   100.00 Ry     beta= 0.70
     Davidson diagonalization with overlap

---- Real-time Memory Report at c_bands before calling an iterative solver
           344 MiB given to the printing process from OS
             0 MiB allocation reported by mallinfo(arena+hblkhd)
          6172 MiB available memory on the node where the printing process lives
------------------
     ethr =  3.85E-11,  avg # of iterations = 17.0

     total cpu time spent up to now is      264.2 secs

     total energy              =    -260.63193977 Ry
     estimated scf accuracy    <       0.00692626 Ry

     total magnetization       =     1.00 Bohr mag/cell
     absolute magnetization    =     1.07 Bohr mag/cell

     iteration #  2     ecut=   100.00 Ry     beta= 0.70
     Davidson diagonalization with overlap

---- Real-time Memory Report at c_bands before calling an iterative solver
           344 MiB given to the printing process from OS
             0 MiB allocation reported by mallinfo(arena+hblkhd)
          5678 MiB available memory on the node where the printing process lives
------------------
     ethr =  2.10E-05,  avg # of iterations =  5.0

     total cpu time spent up to now is      269.1 secs

     total energy              =    -260.63398332 Ry
     estimated scf accuracy    <       0.00737912 Ry

     total magnetization       =     1.00 Bohr mag/cell
     absolute magnetization    =     1.08 Bohr mag/cell

     iteration #  3     ecut=   100.00 Ry     beta= 0.70
     Davidson diagonalization with overlap

---- Real-time Memory Report at c_bands before calling an iterative solver
           344 MiB given to the printing process from OS
             0 MiB allocation reported by mallinfo(arena+hblkhd)
          5618 MiB available memory on the node where the printing process lives
------------------
     ethr =  2.10E-05,  avg # of iterations =  3.0

     total cpu time spent up to now is      272.9 secs

     total energy              =    -260.63524348 Ry
     estimated scf accuracy    <       0.00013535 Ry

     total magnetization       =     1.00 Bohr mag/cell
     absolute magnetization    =     1.07 Bohr mag/cell

     iteration #  4     ecut=   100.00 Ry     beta= 0.70
     Davidson diagonalization with overlap

---- Real-time Memory Report at c_bands before calling an iterative solver
           344 MiB given to the printing process from OS
             0 MiB allocation reported by mallinfo(arena+hblkhd)
          5563 MiB available memory on the node where the printing process lives
------------------
     ethr =  4.10E-07,  avg # of iterations =  5.0

     total cpu time spent up to now is      278.4 secs

     total energy              =    -260.63541254 Ry
     estimated scf accuracy    <       0.00022528 Ry

     total magnetization       =     1.00 Bohr mag/cell
     absolute magnetization    =     1.07 Bohr mag/cell

     iteration #  5     ecut=   100.00 Ry     beta= 0.70
     Davidson diagonalization with overlap

---- Real-time Memory Report at c_bands before calling an iterative solver
           344 MiB given to the printing process from OS
             0 MiB allocation reported by mallinfo(arena+hblkhd)
          5506 MiB available memory on the node where the printing process lives
------------------
     ethr =  4.10E-07,  avg # of iterations =  2.0

     total cpu time spent up to now is      282.0 secs

     total energy              =    -260.63539602 Ry
     estimated scf accuracy    <       0.00007580 Ry

     total magnetization       =     1.00 Bohr mag/cell
     absolute magnetization    =     1.07 Bohr mag/cell

     iteration #  6     ecut=   100.00 Ry     beta= 0.70
     Davidson diagonalization with overlap

---- Real-time Memory Report at c_bands before calling an iterative solver
           344 MiB given to the printing process from OS
             0 MiB allocation reported by mallinfo(arena+hblkhd)
          5423 MiB available memory on the node where the printing process lives
------------------
     ethr =  2.30E-07,  avg # of iterations =  2.5

     total cpu time spent up to now is      285.7 secs

     total energy              =    -260.63540546 Ry
     estimated scf accuracy    <       0.00000821 Ry

     total magnetization       =     1.00 Bohr mag/cell
     absolute magnetization    =     1.07 Bohr mag/cell

     iteration #  7     ecut=   100.00 Ry     beta= 0.70
     Davidson diagonalization with overlap

---- Real-time Memory Report at c_bands before calling an iterative solver
           344 MiB given to the printing process from OS
             0 MiB allocation reported by mallinfo(arena+hblkhd)
          5358 MiB available memory on the node where the printing process lives
------------------
     ethr =  2.49E-08,  avg # of iterations =  4.0

     total cpu time spent up to now is      289.8 secs

     total energy              =    -260.63540765 Ry
     estimated scf accuracy    <       0.00000031 Ry

     total magnetization       =     1.00 Bohr mag/cell
     absolute magnetization    =     1.07 Bohr mag/cell

     iteration #  8     ecut=   100.00 Ry     beta= 0.70
     Davidson diagonalization with overlap

---- Real-time Memory Report at c_bands before calling an iterative solver
           344 MiB given to the printing process from OS
             0 MiB allocation reported by mallinfo(arena+hblkhd)
          5304 MiB available memory on the node where the printing process lives
------------------
     ethr =  9.25E-10,  avg # of iterations =  4.0

     total cpu time spent up to now is      294.2 secs

     total energy              =    -260.63540783 Ry
     estimated scf accuracy    <       0.00000002 Ry

     total magnetization       =     1.00 Bohr mag/cell
     absolute magnetization    =     1.07 Bohr mag/cell

     iteration #  9     ecut=   100.00 Ry     beta= 0.70
     Davidson diagonalization with overlap

---- Real-time Memory Report at c_bands before calling an iterative solver
           344 MiB given to the printing process from OS
             0 MiB allocation reported by mallinfo(arena+hblkhd)
          5231 MiB available memory on the node where the printing process lives
------------------
     ethr =  5.17E-11,  avg # of iterations =  5.0

     total cpu time spent up to now is      299.1 secs

     total energy              =    -260.63540783 Ry
     estimated scf accuracy    <       0.00000001 Ry

     total magnetization       =     1.00 Bohr mag/cell
     absolute magnetization    =     1.07 Bohr mag/cell

     iteration # 10     ecut=   100.00 Ry     beta= 0.70
     Davidson diagonalization with overlap

---- Real-time Memory Report at c_bands before calling an iterative solver
           345 MiB given to the printing process from OS
             0 MiB allocation reported by mallinfo(arena+hblkhd)
          5182 MiB available memory on the node where the printing process lives
------------------
     ethr =  3.52E-11,  avg # of iterations =  2.5

     Magnetic moment per site  (integrated on atomic sphere of radius R)
     atom   1 (R=0.049)  charge=  4.8387  magn=  0.1439
     atom   2 (R=0.049)  charge=  4.1174  magn= -0.0055
     atom   3 (R=0.049)  charge=  4.1172  magn= -0.0056
     atom   4 (R=0.049)  charge=  4.1172  magn= -0.0056

     total cpu time spent up to now is      303.4 secs

     End of self-consistent calculation

 ------ SPIN UP ------------


          k = 0.0000 0.0000 0.0000 (113801 PWs)   bands (ev):

   -65.2688 -43.2055 -43.1951 -39.6495 -32.3907 -29.9110 -29.9088 -14.5083
   -14.5051 -13.4790 -13.4703 -12.9837 -12.2849 -12.1357 -10.8695 -10.8654
    -3.9691

     occupation numbers 
     1.0000   1.0000   1.0000   1.0000   1.0000   1.0000   1.0000   1.0000
     1.0000   1.0000   1.0000   1.0000   1.0000   1.0000   1.0000   1.0000
     1.0000

 ------ SPIN DOWN ----------


          k = 0.0000 0.0000 0.0000 (113801 PWs)   bands (ev):

   -64.7632 -42.9005 -42.8895 -38.9082 -32.3737 -29.8085 -29.8063 -14.4535
   -14.4506 -13.4409 -13.4324 -12.8390 -12.2646 -12.1470 -10.8064 -10.8023
    -1.0668

     occupation numbers 
     1.0000   1.0000   1.0000   1.0000   1.0000   1.0000   1.0000   1.0000
     1.0000   1.0000   1.0000   1.0000   1.0000   1.0000   1.0000   1.0000
     0.0000

     highest occupied, lowest unoccupied level (ev):    -3.9691   -1.0668

!    total energy              =    -260.63540783 Ry
     estimated scf accuracy    <          1.2E-09 Ry

     total magnetization       =     1.00 Bohr mag/cell
     absolute magnetization    =     1.07 Bohr mag/cell

     convergence has been achieved in  10 iterations

     Using ACE for calculation of exact exchange
     ACE projected onto    17 (nbndproj) and applied to    17 (nbnd) bands

     total energy              =    -260.63628986 Ry
     Harris-Foulkes estimate   =    -260.63628987 Ry
     est. exchange err (dexx)  =       0.00088204 Ry
     - averaged Fock potential =      16.14609786 Ry
     + Fock energy (ACE)       =      -8.08306931 Ry

     EXX: now go back to refine exchange calculation

     total cpu time spent up to now is      306.3 secs

     Self-consistent Calculation

     iteration #  1     ecut=   100.00 Ry     beta= 0.70
     Davidson diagonalization with overlap

---- Real-time Memory Report at c_bands before calling an iterative solver
           345 MiB given to the printing process from OS
             0 MiB allocation reported by mallinfo(arena+hblkhd)
          6185 MiB available memory on the node where the printing process lives
------------------
     ethr =  3.52E-11,  avg # of iterations = 12.0

     total cpu time spent up to now is      319.7 secs

     total energy              =    -260.63640897 Ry
     estimated scf accuracy    <       0.00011949 Ry

     total magnetization       =     1.00 Bohr mag/cell
     absolute magnetization    =     1.07 Bohr mag/cell

     iteration #  2     ecut=   100.00 Ry     beta= 0.70
     Davidson diagonalization with overlap

---- Real-time Memory Report at c_bands before calling an iterative solver
           345 MiB given to the printing process from OS
             0 MiB allocation reported by mallinfo(arena+hblkhd)
          5604 MiB available memory on the node where the printing process lives
------------------
     ethr =  3.62E-07,  avg # of iterations =  5.0

     total cpu time spent up to now is      325.6 secs

     total energy              =    -260.63643975 Ry
     estimated scf accuracy    <       0.00011836 Ry

     total magnetization       =     1.00 Bohr mag/cell
     absolute magnetization    =     1.07 Bohr mag/cell

     iteration #  3     ecut=   100.00 Ry     beta= 0.70
     Davidson diagonalization with overlap

---- Real-time Memory Report at c_bands before calling an iterative solver
           345 MiB given to the printing process from OS
             0 MiB allocation reported by mallinfo(arena+hblkhd)
          5541 MiB available memory on the node where the printing process lives
------------------
     ethr =  3.59E-07,  avg # of iterations =  3.0

     total cpu time spent up to now is      330.1 secs

     total energy              =    -260.63646238 Ry
     estimated scf accuracy    <       0.00000160 Ry

     total magnetization       =     1.00 Bohr mag/cell
     absolute magnetization    =     1.07 Bohr mag/cell

     iteration #  4     ecut=   100.00 Ry     beta= 0.70
     Davidson diagonalization with overlap

---- Real-time Memory Report at c_bands before calling an iterative solver
           345 MiB given to the printing process from OS
             0 MiB allocation reported by mallinfo(arena+hblkhd)
          5538 MiB available memory on the node where the printing process lives
------------------
     ethr =  4.86E-09,  avg # of iterations =  5.0

     total cpu time spent up to now is      336.5 secs

     total energy              =    -260.63646457 Ry
     estimated scf accuracy    <       0.00000322 Ry

     total magnetization       =     1.00 Bohr mag/cell
     absolute magnetization    =     1.07 Bohr mag/cell

     iteration #  5     ecut=   100.00 Ry     beta= 0.70
     Davidson diagonalization with overlap

---- Real-time Memory Report at c_bands before calling an iterative solver
           345 MiB given to the printing process from OS
             0 MiB allocation reported by mallinfo(arena+hblkhd)
          5458 MiB available memory on the node where the printing process lives
------------------
     ethr =  4.86E-09,  avg # of iterations =  2.0

     total cpu time spent up to now is      340.9 secs

     total energy              =    -260.63646427 Ry
     estimated scf accuracy    <       0.00000101 Ry

     total magnetization       =     1.00 Bohr mag/cell
     absolute magnetization    =     1.07 Bohr mag/cell

     iteration #  6     ecut=   100.00 Ry     beta= 0.70
     Davidson diagonalization with overlap

---- Real-time Memory Report at c_bands before calling an iterative solver
           345 MiB given to the printing process from OS
             0 MiB allocation reported by mallinfo(arena+hblkhd)
          5389 MiB available memory on the node where the printing process lives
------------------
     ethr =  3.05E-09,  avg # of iterations =  4.0

     Magnetic moment per site  (integrated on atomic sphere of radius R)
     atom   1 (R=0.049)  charge=  4.8383  magn=  0.1470
     atom   2 (R=0.049)  charge=  4.1187  magn= -0.0059
     atom   3 (R=0.049)  charge=  4.1185  magn= -0.0060
     atom   4 (R=0.049)  charge=  4.1185  magn= -0.0060

     total cpu time spent up to now is      345.9 secs

     End of self-consistent calculation

 ------ SPIN UP ------------


          k = 0.0000 0.0000 0.0000 (113801 PWs)   bands (ev):

   -65.2844 -43.2019 -43.1915 -39.6627 -32.3652 -29.8917 -29.8897 -14.4804
   -14.4772 -13.4526 -13.4438 -12.9655 -12.2618 -12.1061 -10.8483 -10.8443
    -3.9962

     occupation numbers 
     1.0000   1.0000   1.0000   1.0000   1.0000   1.0000   1.0000   1.0000
     1.0000   1.0000   1.0000   1.0000   1.0000   1.0000   1.0000   1.0000
     1.0000

 ------ SPIN DOWN ----------


          k = 0.0000 0.0000 0.0000 (113801 PWs)   bands (ev):

   -64.7656 -42.8886 -42.8776 -38.8979 -32.3506 -29.7895 -29.7874 -14.4269
   -14.4239 -13.4169 -13.4082 -12.8179 -12.2443 -12.1198 -10.7885 -10.7845
    -1.0553

     occupation numbers 
     1.0000   1.0000   1.0000   1.0000   1.0000   1.0000   1.0000   1.0000
     1.0000   1.0000   1.0000   1.0000   1.0000   1.0000   1.0000   1.0000
     0.0000

     highest occupied, lowest unoccupied level (ev):    -3.9962   -1.0553

!    total energy              =    -260.63646452 Ry
     estimated scf accuracy    <          2.1E-09 Ry

     total magnetization       =     1.00 Bohr mag/cell
     absolute magnetization    =     1.07 Bohr mag/cell

     convergence has been achieved in   6 iterations

     Using ACE for calculation of exact exchange
     ACE projected onto    17 (nbndproj) and applied to    17 (nbnd) bands

     total energy              =    -260.63651080 Ry
     Harris-Foulkes estimate   =    -260.63651080 Ry
     est. exchange err (dexx)  =       0.00004628 Ry
     - averaged Fock potential =      16.16970912 Ry
     + Fock energy (ACE)       =      -8.08668608 Ry

     EXX: now go back to refine exchange calculation

     total cpu time spent up to now is      349.3 secs

     Self-consistent Calculation

     iteration #  1     ecut=   100.00 Ry     beta= 0.70
     Davidson diagonalization with overlap

---- Real-time Memory Report at c_bands before calling an iterative solver
           345 MiB given to the printing process from OS
             0 MiB allocation reported by mallinfo(arena+hblkhd)
          6145 MiB available memory on the node where the printing process lives
------------------
     ethr =  3.05E-09,  avg # of iterations =  6.0

     total cpu time spent up to now is      355.6 secs

     total energy              =    -260.63652473 Ry
     estimated scf accuracy    <       0.00000406 Ry

     total magnetization       =     1.00 Bohr mag/cell
     absolute magnetization    =     1.07 Bohr mag/cell

     iteration #  2     ecut=   100.00 Ry     beta= 0.70
     Davidson diagonalization with overlap

---- Real-time Memory Report at c_bands before calling an iterative solver
           345 MiB given to the printing process from OS
             0 MiB allocation reported by mallinfo(arena+hblkhd)
          5642 MiB available memory on the node where the printing process lives
------------------
     ethr =  1.23E-08,  avg # of iterations =  2.0

     total cpu time spent up to now is      359.5 secs

     total energy              =    -260.63652559 Ry
     estimated scf accuracy    <       0.00000095 Ry

     total magnetization       =     1.00 Bohr mag/cell
     absolute magnetization    =     1.07 Bohr mag/cell

     iteration #  3     ecut=   100.00 Ry     beta= 0.70
     Davidson diagonalization with overlap

---- Real-time Memory Report at c_bands before calling an iterative solver
           345 MiB given to the printing process from OS
             0 MiB allocation reported by mallinfo(arena+hblkhd)
          5579 MiB available memory on the node where the printing process lives
------------------
     ethr =  2.89E-09,  avg # of iterations =  2.0

     total cpu time spent up to now is      363.6 secs

     total energy              =    -260.63652583 Ry
     estimated scf accuracy    <       0.00000003 Ry

     total magnetization       =     1.00 Bohr mag/cell
     absolute magnetization    =     1.07 Bohr mag/cell

     iteration #  4     ecut=   100.00 Ry     beta= 0.70
     Davidson diagonalization with overlap

---- Real-time Memory Report at c_bands before calling an iterative solver
           345 MiB given to the printing process from OS
             0 MiB allocation reported by mallinfo(arena+hblkhd)
          5514 MiB available memory on the node where the printing process lives
------------------
     ethr =  9.56E-11,  avg # of iterations =  3.0

     Magnetic moment per site  (integrated on atomic sphere of radius R)
     atom   1 (R=0.049)  charge=  4.8385  magn=  0.1483
     atom   2 (R=0.049)  charge=  4.1190  magn= -0.0060
     atom   3 (R=0.049)  charge=  4.1188  magn= -0.0061
     atom   4 (R=0.049)  charge=  4.1188  magn= -0.0061

     total cpu time spent up to now is      367.2 secs

     End of self-consistent calculation

 ------ SPIN UP ------------


          k = 0.0000 0.0000 0.0000 (113801 PWs)   bands (ev):

   -65.2786 -43.1939 -43.1834 -39.6581 -32.3553 -29.8825 -29.8805 -14.4705
   -14.4673 -13.4437 -13.4348 -12.9582 -12.2543 -12.0964 -10.8398 -10.8359
    -4.0029

     occupation numbers 
     1.0000   1.0000   1.0000   1.0000   1.0000   1.0000   1.0000   1.0000
     1.0000   1.0000   1.0000   1.0000   1.0000   1.0000   1.0000   1.0000
     1.0000

 ------ SPIN DOWN ----------


          k = 0.0000 0.0000 0.0000 (113801 PWs)   bands (ev):

   -64.7539 -42.8771 -42.8661 -38.8825 -32.3412 -29.7798 -29.7777 -14.4171
   -14.4141 -13.4084 -13.3997 -12.8090 -12.2374 -12.1107 -10.7805 -10.7766
    -1.0487

     occupation numbers 
     1.0000   1.0000   1.0000   1.0000   1.0000   1.0000   1.0000   1.0000
     1.0000   1.0000   1.0000   1.0000   1.0000   1.0000   1.0000   1.0000
     0.0000

     highest occupied, lowest unoccupied level (ev):    -4.0029   -1.0487

!    total energy              =    -260.63652583 Ry
     estimated scf accuracy    <          3.6E-09 Ry

     total magnetization       =     1.00 Bohr mag/cell
     absolute magnetization    =     1.07 Bohr mag/cell

     convergence has been achieved in   4 iterations

     Using ACE for calculation of exact exchange
     ACE projected onto    17 (nbndproj) and applied to    17 (nbnd) bands

     total energy              =    -260.63653108 Ry
     Harris-Foulkes estimate   =    -260.63653108 Ry
     est. exchange err (dexx)  =       0.00000525 Ry
     - averaged Fock potential =      16.17432592 Ry
     + Fock energy (ACE)       =      -8.08764508 Ry

     EXX: now go back to refine exchange calculation

     total cpu time spent up to now is      370.1 secs

     Self-consistent Calculation

     iteration #  1     ecut=   100.00 Ry     beta= 0.70
     Davidson diagonalization with overlap

---- Real-time Memory Report at c_bands before calling an iterative solver
           345 MiB given to the printing process from OS
             0 MiB allocation reported by mallinfo(arena+hblkhd)
          6177 MiB available memory on the node where the printing process lives
------------------
     ethr =  9.56E-11,  avg # of iterations =  6.0

     total cpu time spent up to now is      375.9 secs

     total energy              =    -260.63653300 Ry
     estimated scf accuracy    <       0.00000052 Ry

     total magnetization       =     1.00 Bohr mag/cell
     absolute magnetization    =     1.07 Bohr mag/cell

     iteration #  2     ecut=   100.00 Ry     beta= 0.70
     Davidson diagonalization with overlap

---- Real-time Memory Report at c_bands before calling an iterative solver
           345 MiB given to the printing process from OS
             0 MiB allocation reported by mallinfo(arena+hblkhd)
[...]
           345 MiB given to the printing process from OS
             0 MiB allocation reported by mallinfo(arena+hblkhd)
          5450 MiB available memory on the node where the printing process lives
------------------
     ethr =  1.69E-12,  avg # of iterations =  2.0

     Magnetic moment per site  (integrated on atomic sphere of radius R)
     atom   1 (R=0.049)  charge=  4.7231  magn=  0.2723
     atom   2 (R=0.049)  charge=  4.0194  magn= -0.0135
     atom   3 (R=0.049)  charge=  4.0197  magn= -0.0135
     atom   4 (R=0.049)  charge=  4.0197  magn= -0.0135

     total cpu time spent up to now is     1792.2 secs

     End of self-consistent calculation

 ------ SPIN UP ------------


          k = 0.0000 0.0000 0.0000 (113801 PWs)   bands (ev):

   -67.3785 -42.6460 -42.6437 -42.3854 -31.3210 -30.8446 -30.8438 -12.1995
   -12.1448 -12.1441 -11.3704 -11.3673 -11.0544 -11.0160 -11.0145 -10.7877
    -6.3256

     occupation numbers 
     1.0000   1.0000   1.0000   1.0000   1.0000   1.0000   1.0000   1.0000
     1.0000   1.0000   1.0000   1.0000   1.0000   1.0000   1.0000   1.0000
     1.0000

 ------ SPIN DOWN ----------


          k = 0.0000 0.0000 0.0000 (113801 PWs)   bands (ev):

   -66.4595 -41.9686 -41.9642 -40.8549 -31.3560 -30.8537 -30.8529 -12.1036
   -12.1034 -12.0881 -11.3857 -11.3827 -11.0830 -11.0407 -11.0391 -10.8246
    -2.0571

     occupation numbers 
     1.0000   1.0000   1.0000   1.0000   1.0000   1.0000   1.0000   1.0000
     1.0000   1.0000   1.0000   1.0000   1.0000   1.0000   1.0000   1.0000
     0.0000

     highest occupied, lowest unoccupied level (ev):    -6.3256   -2.0571

!    total energy              =    -261.27910672 Ry
     estimated scf accuracy    <          3.5E-11 Ry

     total magnetization       =     1.00 Bohr mag/cell
     absolute magnetization    =     1.12 Bohr mag/cell

     convergence has been achieved in   4 iterations

     Using ACE for calculation of exact exchange
     ACE projected onto    17 (nbndproj) and applied to    17 (nbnd) bands

     total energy              =    -261.27910675 Ry
     Harris-Foulkes estimate   =    -261.27910675 Ry
     est. exchange err (dexx)  =       0.00000003 Ry
     - averaged Fock potential =      15.83167739 Ry
     + Fock energy (ACE)       =      -7.91587305 Ry

     EXX: now go back to refine exchange calculation

     total cpu time spent up to now is     1795.0 secs

     Self-consistent Calculation

     iteration #  1     ecut=   100.00 Ry     beta= 0.70
     Davidson diagonalization with overlap

---- Real-time Memory Report at c_bands before calling an iterative solver
           345 MiB given to the printing process from OS
             0 MiB allocation reported by mallinfo(arena+hblkhd)
          6141 MiB available memory on the node where the printing process lives
------------------
     ethr =  1.69E-12,  avg # of iterations =  6.0

     total cpu time spent up to now is     1800.4 secs

     total energy              =    -261.27910677 Ry
     estimated scf accuracy    <          3.4E-09 Ry

     total magnetization       =     1.00 Bohr mag/cell
     absolute magnetization    =     1.12 Bohr mag/cell

     iteration #  2     ecut=   100.00 Ry     beta= 0.70
     Davidson diagonalization with overlap

---- Real-time Memory Report at c_bands before calling an iterative solver
           345 MiB given to the printing process from OS
             0 MiB allocation reported by mallinfo(arena+hblkhd)
          5586 MiB available memory on the node where the printing process lives
------------------
     ethr =  1.02E-11,  avg # of iterations =  2.0

     Magnetic moment per site  (integrated on atomic sphere of radius R)
     atom   1 (R=0.049)  charge=  4.7231  magn=  0.2724
     atom   2 (R=0.049)  charge=  4.0194  magn= -0.0135
     atom   3 (R=0.049)  charge=  4.0197  magn= -0.0135
     atom   4 (R=0.049)  charge=  4.0197  magn= -0.0135

     total cpu time spent up to now is     1804.4 secs

     End of self-consistent calculation

 ------ SPIN UP ------------


          k = 0.0000 0.0000 0.0000 (113801 PWs)   bands (ev):

   -67.3783 -42.6457 -42.6434 -42.3853 -31.3208 -30.8443 -30.8436 -12.1994
   -12.1446 -12.1438 -11.3703 -11.3671 -11.0542 -11.0158 -11.0143 -10.7875
    -6.3258

     occupation numbers 
     1.0000   1.0000   1.0000   1.0000   1.0000   1.0000   1.0000   1.0000
     1.0000   1.0000   1.0000   1.0000   1.0000   1.0000   1.0000   1.0000
     1.0000

 ------ SPIN DOWN ----------


          k = 0.0000 0.0000 0.0000 (113801 PWs)   bands (ev):

   -66.4591 -41.9682 -41.9639 -40.8544 -31.3557 -30.8534 -30.8526 -12.1034
   -12.1032 -12.0879 -11.3855 -11.3825 -11.0828 -11.0405 -11.0389 -10.8243
    -2.0570

     occupation numbers 
     1.0000   1.0000   1.0000   1.0000   1.0000   1.0000   1.0000   1.0000
     1.0000   1.0000   1.0000   1.0000   1.0000   1.0000   1.0000   1.0000
     0.0000

     highest occupied, lowest unoccupied level (ev):    -6.3258   -2.0570

!    total energy              =    -261.27910677 Ry
     estimated scf accuracy    <          5.4E-10 Ry

     total magnetization       =     1.00 Bohr mag/cell
     absolute magnetization    =     1.12 Bohr mag/cell

     convergence has been achieved in   2 iterations

     Using ACE for calculation of exact exchange
     ACE projected onto    17 (nbndproj) and applied to    17 (nbnd) bands

     total energy              =    -261.27910677 Ry
     Harris-Foulkes estimate   =    -261.27910677 Ry
     est. exchange err (dexx)  =          4.9E-09 Ry
     - averaged Fock potential =      15.83176446 Ry
     + Fock energy (ACE)       =      -7.91589142 Ry

     EXX: now go back to refine exchange calculation

     total cpu time spent up to now is     1807.2 secs

     Self-consistent Calculation

     iteration #  1     ecut=   100.00 Ry     beta= 0.70
     Davidson diagonalization with overlap

---- Real-time Memory Report at c_bands before calling an iterative solver
           345 MiB given to the printing process from OS
             0 MiB allocation reported by mallinfo(arena+hblkhd)
          6170 MiB available memory on the node where the printing process lives
------------------
     ethr =  1.02E-11,  avg # of iterations =  3.5

     total cpu time spent up to now is     1811.6 secs

     total energy              =    -261.27910677 Ry
     estimated scf accuracy    <          1.5E-09 Ry

     total magnetization       =     1.00 Bohr mag/cell
     absolute magnetization    =     1.12 Bohr mag/cell

     iteration #  2     ecut=   100.00 Ry     beta= 0.70
     Davidson diagonalization with overlap

---- Real-time Memory Report at c_bands before calling an iterative solver
           345 MiB given to the printing process from OS
             0 MiB allocation reported by mallinfo(arena+hblkhd)
          5593 MiB available memory on the node where the printing process lives
------------------
     ethr =  4.50E-12,  avg # of iterations =  2.0

     Magnetic moment per site  (integrated on atomic sphere of radius R)
     atom   1 (R=0.049)  charge=  4.7231  magn=  0.2724
     atom   2 (R=0.049)  charge=  4.0194  magn= -0.0135
     atom   3 (R=0.049)  charge=  4.0197  magn= -0.0135
     atom   4 (R=0.049)  charge=  4.0197  magn= -0.0135

     total cpu time spent up to now is     1815.6 secs

     End of self-consistent calculation

 ------ SPIN UP ------------


          k = 0.0000 0.0000 0.0000 (113801 PWs)   bands (ev):

   -67.3782 -42.6457 -42.6434 -42.3853 -31.3207 -30.8443 -30.8435 -12.1993
   -12.1445 -12.1438 -11.3702 -11.3671 -11.0542 -11.0158 -11.0142 -10.7874
    -6.3258

     occupation numbers 
     1.0000   1.0000   1.0000   1.0000   1.0000   1.0000   1.0000   1.0000
     1.0000   1.0000   1.0000   1.0000   1.0000   1.0000   1.0000   1.0000
     1.0000

 ------ SPIN DOWN ----------


          k = 0.0000 0.0000 0.0000 (113801 PWs)   bands (ev):

   -66.4589 -41.9681 -41.9638 -40.8543 -31.3556 -30.8533 -30.8525 -12.1033
   -12.1031 -12.0878 -11.3854 -11.3824 -11.0827 -11.0404 -11.0388 -10.8242
    -2.0569

     occupation numbers 
     1.0000   1.0000   1.0000   1.0000   1.0000   1.0000   1.0000   1.0000
     1.0000   1.0000   1.0000   1.0000   1.0000   1.0000   1.0000   1.0000
     0.0000

     highest occupied, lowest unoccupied level (ev):    -6.3258   -2.0569

!    total energy              =    -261.27910677 Ry
     estimated scf accuracy    <          4.6E-10 Ry

     total magnetization       =     1.00 Bohr mag/cell
     absolute magnetization    =     1.12 Bohr mag/cell

     convergence has been achieved in   2 iterations

     Using ACE for calculation of exact exchange
     ACE projected onto    17 (nbndproj) and applied to    17 (nbnd) bands

     total energy              =    -261.27910678 Ry
     Harris-Foulkes estimate   =    -261.27910678 Ry
     est. exchange err (dexx)  =          7.5E-10 Ry
     - averaged Fock potential =      15.83179158 Ry
     + Fock energy (ACE)       =      -7.91590016 Ry

     EXX: now go back to refine exchange calculation

     total cpu time spent up to now is     1818.3 secs

     Self-consistent Calculation

     iteration #  1     ecut=   100.00 Ry     beta= 0.70
     Davidson diagonalization with overlap

---- Real-time Memory Report at c_bands before calling an iterative solver
           345 MiB given to the printing process from OS
             0 MiB allocation reported by mallinfo(arena+hblkhd)
          6190 MiB available memory on the node where the printing process lives
------------------
     ethr =  4.50E-12,  avg # of iterations =  4.5

     total cpu time spent up to now is     1822.8 secs

     total energy              =    -261.27910678 Ry
     estimated scf accuracy    <          1.3E-09 Ry

     total magnetization       =     1.00 Bohr mag/cell
     absolute magnetization    =     1.12 Bohr mag/cell

     iteration #  2     ecut=   100.00 Ry     beta= 0.70
     Davidson diagonalization with overlap

---- Real-time Memory Report at c_bands before calling an iterative solver
           345 MiB given to the printing process from OS
             0 MiB allocation reported by mallinfo(arena+hblkhd)
          5623 MiB available memory on the node where the printing process lives
------------------
     ethr =  4.02E-12,  avg # of iterations =  4.0

     total cpu time spent up to now is     1827.1 secs

     total energy              =    -261.27910678 Ry
     estimated scf accuracy    <          1.2E-09 Ry

     total magnetization       =     1.00 Bohr mag/cell
     absolute magnetization    =     1.12 Bohr mag/cell

     iteration #  3     ecut=   100.00 Ry     beta= 0.70
     Davidson diagonalization with overlap

---- Real-time Memory Report at c_bands before calling an iterative solver
           345 MiB given to the printing process from OS
             0 MiB allocation reported by mallinfo(arena+hblkhd)
          5548 MiB available memory on the node where the printing process lives
------------------
     ethr =  3.72E-12,  avg # of iterations =  4.0

     Magnetic moment per site  (integrated on atomic sphere of radius R)
     atom   1 (R=0.049)  charge=  4.7231  magn=  0.2724
     atom   2 (R=0.049)  charge=  4.0194  magn= -0.0135
     atom   3 (R=0.049)  charge=  4.0197  magn= -0.0135
     atom   4 (R=0.049)  charge=  4.0197  magn= -0.0135

     total cpu time spent up to now is     1831.1 secs

     End of self-consistent calculation

 ------ SPIN UP ------------


          k = 0.0000 0.0000 0.0000 (113801 PWs)   bands (ev):

   -67.3781 -42.6456 -42.6433 -42.3853 -31.3208 -30.8443 -30.8436 -12.1994
   -12.1446 -12.1438 -11.3703 -11.3672 -11.0543 -11.0158 -11.0143 -10.7875
    -6.3259

     occupation numbers 
     1.0000   1.0000   1.0000   1.0000   1.0000   1.0000   1.0000   1.0000
     1.0000   1.0000   1.0000   1.0000   1.0000   1.0000   1.0000   1.0000
     1.0000

 ------ SPIN DOWN ----------


          k = 0.0000 0.0000 0.0000 (113801 PWs)   bands (ev):

   -66.4589 -41.9681 -41.9637 -40.8542 -31.3557 -30.8534 -30.8526 -12.1033
   -12.1031 -12.0878 -11.3854 -11.3824 -11.0828 -11.0404 -11.0388 -10.8243
    -2.0569

     occupation numbers 
     1.0000   1.0000   1.0000   1.0000   1.0000   1.0000   1.0000   1.0000
     1.0000   1.0000   1.0000   1.0000   1.0000   1.0000   1.0000   1.0000
     0.0000

     highest occupied, lowest unoccupied level (ev):    -6.3259   -2.0569

!    total energy              =    -261.27910678 Ry
     estimated scf accuracy    <          6.2E-12 Ry

     total magnetization       =     1.00 Bohr mag/cell
     absolute magnetization    =     1.12 Bohr mag/cell

     convergence has been achieved in   3 iterations

     Using ACE for calculation of exact exchange
     ACE projected onto    17 (nbndproj) and applied to    17 (nbnd) bands

!!   total energy              =    -261.27910678 Ry
     Harris-Foulkes estimate   =    -261.27910678 Ry
     est. exchange err (dexx)  =          1.2E-10 Ry
     - averaged Fock potential =      15.83181046 Ry
     + Fock energy (ACE)       =      -7.91591030 Ry

     EXX self-consistency reached

     Forces acting on atoms (cartesian axes, Ry/au):

     atom    1 type  1   force =     0.00000000    0.00092062    0.00000000
     atom    2 type  2   force =     0.00000000   -0.00051292    0.00000000
     atom    3 type  2   force =     0.00037821   -0.00020385    0.00000000
     atom    4 type  2   force =    -0.00037821   -0.00020385    0.00000000
     The non-local contrib.  to forces
     atom    1 type  1   force =     0.00000000   -0.00344024    0.00000000
     atom    2 type  2   force =     0.00000000   -1.42383006    0.00000000
     atom    3 type  2   force =    -1.23402050    0.71350177    0.00000000
     atom    4 type  2   force =     1.23402050    0.71350177    0.00000000
     The ionic contribution  to forces
     atom    1 type  1   force =    -0.00000000    0.08587663    0.00000000
     atom    2 type  2   force =    -0.00000000   18.61603901   -0.00000000
     atom    3 type  2   force =    16.15603813   -9.35095782    0.00000000
     atom    4 type  2   force =   -16.15603813   -9.35095782    0.00000000
     The local contribution  to forces
     atom    1 type  1   force =     0.00000000   -0.08177716    0.00000000
     atom    2 type  2   force =    -0.00000000  -17.19297998    0.00000000
     atom    3 type  2   force =   -14.92163656    8.63698923    0.00000000
     atom    4 type  2   force =    14.92163656    8.63698923    0.00000000
     The core correction contribution to forces
     atom    1 type  1   force =     0.00000000    0.00000000    0.00000000
     atom    2 type  2   force =     0.00000000    0.00000000    0.00000000
     atom    3 type  2   force =     0.00000000    0.00000000    0.00000000
     atom    4 type  2   force =     0.00000000    0.00000000    0.00000000
     The Hubbard contrib.    to forces
     atom    1 type  1   force =     0.00000000    0.00000000    0.00000000
     atom    2 type  2   force =     0.00000000    0.00000000    0.00000000
     atom    3 type  2   force =     0.00000000    0.00000000    0.00000000
     atom    4 type  2   force =     0.00000000    0.00000000    0.00000000
     The SCF correction term to forces
     atom    1 type  1   force =     0.00000000    0.00000008   -0.00000000
     atom    2 type  2   force =    -0.00000000   -0.00000320   -0.00000000
     atom    3 type  2   force =    -0.00000286    0.00000167   -0.00000000
     atom    4 type  2   force =     0.00000286    0.00000167   -0.00000000

     Total force =     0.001216     Total SCF correction =     0.000006
     Energy error            =      1.9E-05 Ry
     Gradient error          =      9.2E-04 Ry/Bohr

     bfgs converged in   7 scf cycles and   6 bfgs steps
     (criteria: energy <  1.0E-04 Ry, force <  1.0E-03 Ry/Bohr)

     End of BFGS Geometry Optimization

     Final energy             =    -261.2791067759 Ry

     File ./scratch/tif3.bfgs deleted, as requested
Begin final coordinates

ATOMIC_POSITIONS (crystal)
Ti            0.0000000000       -0.0000329100        0.0000000000
F             0.0000000000        0.1787448095        0.0000000000
F             0.1547105830       -0.0893559498        0.0000000000
F            -0.1547105830       -0.0893559498        0.0000000000
End final coordinates



     Writing all to output data dir ./scratch/tif3.save/

     init_run     :      3.25s CPU      3.53s WALL (       1 calls)
     electrons    :   1604.23s CPU   1664.45s WALL (      58 calls)
     update_pot   :      5.79s CPU      6.29s WALL (       6 calls)
     forces       :      2.00s CPU      2.08s WALL (       7 calls)

     Called by init_run:
     aceinit0     :      0.00s CPU      0.00s WALL (       1 calls)
     wfcinit      :      2.04s CPU      2.15s WALL (       1 calls)
     wfcinit:atom :      0.03s CPU      0.03s WALL (       2 calls)
     wfcinit:wfcr :      1.94s CPU      2.05s WALL (       2 calls)
     potinit      :      0.74s CPU      0.86s WALL (       1 calls)
     hinit0       :      0.15s CPU      0.17s WALL (       1 calls)

     Called by electrons:
     c_bands      :   1151.77s CPU   1187.49s WALL (     318 calls)
     sum_band     :    177.85s CPU    186.11s WALL (     318 calls)
     v_of_rho     :    228.90s CPU    236.47s WALL (     332 calls)
     v_h          :     12.22s CPU     12.73s WALL (     332 calls)
     v_xc         :    216.68s CPU    223.73s WALL (     332 calls)
     mix_rho      :     45.14s CPU     49.32s WALL (     318 calls)

     Called by c_bands:
     init_us_2    :      2.84s CPU      2.86s WALL (    1288 calls)
     init_us_2:cp :      2.82s CPU      2.85s WALL (    1288 calls)
     cegterg      :   1145.21s CPU   1180.87s WALL (     639 calls)

     Called by sum_band:
     sum_band:wei :      0.01s CPU      0.00s WALL (     318 calls)
     sum_band:loo :    137.03s CPU    141.10s WALL (     318 calls)
     sum_band:buf :      2.00s CPU      2.01s WALL (     636 calls)
     sum_band:ini :      1.46s CPU      1.46s WALL (     636 calls)

     Called by *egterg:
     cdiaghg      :      1.46s CPU      1.47s WALL (    3583 calls)
     cegterg:over :     61.20s CPU     61.32s WALL (    3061 calls)
     cegterg:upda :     32.23s CPU     32.41s WALL (    3061 calls)
     cegterg:last :     52.45s CPU     52.52s WALL (    2132 calls)
     h_psi        :    971.28s CPU   1006.44s WALL (    3702 calls)
     g_psi        :      2.74s CPU      2.75s WALL (    3061 calls)

     Called by h_psi:
     h_psi:calbec :     14.20s CPU     14.58s WALL (    3702 calls)
     vloc_psi     :    898.91s CPU    932.96s WALL (    3702 calls)
     add_vuspsi   :      8.58s CPU      8.64s WALL (    3702 calls)

     General routines
     calbec       :     38.31s CPU     38.76s WALL (    7036 calls)
     fft          :    143.05s CPU    151.28s WALL (    6177 calls)
     ffts         :     14.73s CPU     15.56s WALL (     636 calls)
     fftw         :    827.82s CPU    859.91s WALL (   91940 calls)
     fftc         :     71.83s CPU     78.27s WALL (   67048 calls)
     fftcw        :      5.58s CPU      6.83s WALL (    5916 calls)

     Parallel routines

     EXX routines
     exx_grid     :      0.00s CPU      0.00s WALL (       1 calls)
     exxinit      :      8.20s CPU     10.00s WALL (      58 calls)
     vexx         :    120.81s CPU    132.22s WALL (     116 calls)
     matcalc      :     23.89s CPU     23.95s WALL (    3278 calls)
     aceupdate    :      0.71s CPU      0.72s WALL (     116 calls)
     vexxace      :     47.51s CPU     47.81s WALL (    2944 calls)
     aceinit      :    122.84s CPU    134.26s WALL (     116 calls)

     PWSCF        :  29m19.11s CPU  30m34.28s WALL


   This run was terminated on:  15: 4:13  21Nov2024            

=------------------------------------------------------------------------------=
   JOB DONE.
=------------------------------------------------------------------------------=
